# vtk DataFile Version 4.0
vtk output
ASCII
DATASET UNSTRUCTURED_GRID
POINTS 4496 float
-4.3633327e-01 9.6409470e-01 4.4200001e+01 
-4.3633258e-01 9.6409065e-01 4.4074627e+01 
-3.2152572e-01 9.1279918e-01 4.4200001e+01 
-3.8534868e-01 8.4052670e-01 4.4200001e+01 
-3.9589554e-01 8.5545403e-01 4.4010014e+01 
-3.2616228e-01 9.1667932e-01 4.4011734e+01 
-4.3633190e-01 9.6408653e-01 4.3948376e+01 
-2.1293370e-01 8.4677851e-01 4.4200001e+01 
-2.9042658e-01 7.3813015e-01 4.4200001e+01 
-2.1010752e-01 8.4669363e-01 4.4073502e+01 
-2.8908840e-01 7.3604190e-01 4.4072292e+01 
-3.9589015e-01 8.5505831e-01 4.3883316e+01 
-3.2487559e-01 9.1697580e-01 4.3885036e+01 
-2.0722924e-01 8.4660655e-01 4.3944645e+01 
-1.1981077e-01 7.7773046e-01 4.4200001e+01 
-2.8772619e-01 7.3391593e-01 4.3942276e+01 
-4.3633121e-01 9.6408242e-01 4.3821228e+01 
-1.9739023e-01 6.6468561e-01 4.4200001e+01 
-2.9444304e-01 7.8727525e-01 4.3879974e+01 
-8.7554991e-02 7.5255024e-01 4.4042213e+01 
-1.6445170e-01 6.4084798e-01 4.4041008e+01 
-3.2357255e-01 9.1726828e-01 4.3757431e+01 
-3.9587301e-01 8.5463828e-01 4.3755711e+01 
-2.0429766e-01 8.4651643e-01 4.3813354e+01 
-2.8633916e-01 7.3175091e-01 4.3809875e+01 
-2.6899619e-02 6.8901783e-01 4.4200001e+01 
-1.0567340e-01 7.7152997e-01 4.3875790e+01 
-4.3633053e-01 9.6407831e-01 4.3693161e+01 
-8.7133333e-02 5.9509218e-01 4.4200001e+01 
-1.8777622e-01 6.5475601e-01 4.3873402e+01 
-2.0131156e-01 8.4642249e-01 4.3679543e+01 
-3.2225290e-01 9.1755641e-01 4.3628902e+01 
-3.9584404e-01 8.5419410e-01 4.3627178e+01 
-1.0114321e-03 6.6670936e-01 4.3939713e+01 
-2.8492665e-01 7.2954547e-01 4.3675007e+01 
-1.0131179e-01 7.7015632e-01 4.3743176e+01 
-6.0682178e-02 5.7631296e-01 4.3938457e+01 
3.9444737e-02 6.2338209e-01 4.4053139e+01 
-1.8470748e-01 6.5131217e-01 4.3739727e+01 
-7.0938184e-03 5.4737431e-01 4.4052326e+01 
-4.3632981e-01 9.6407413e-01 4.3564159e+01 
7.6947339e-02 5.8804804e-01 4.4200001e+01 
-1.2721874e-02 6.8194175e-01 4.3817982e+01 
-7.7214435e-02 5.8474159e-01 4.3819649e+01 
4.0195532e-02 5.2425718e-01 4.4200001e+01 
-1.9826968e-01 8.4632379e-01 4.3543118e+01 
-9.6842363e-02 7.6872379e-01 4.3607994e+01 
-3.2091641e-01 9.1783977e-01 4.3499420e+01 
-3.9580306e-01 8.5372573e-01 4.3497700e+01 
-2.8348783e-01 7.2729832e-01 4.3537586e+01 
-1.8155001e-01 6.4778340e-01 4.3603539e+01 
1.5678726e-01 5.2239102e-01 4.4060219e+01 
1.0298219e-02 6.6009766e-01 4.3674484e+01 
1.3250886e-01 4.7546524e-01 4.4058990e+01 
-4.3632913e-01 9.6407002e-01 4.3434200e+01 
-5.0139543e-02 5.6696451e-01 4.3671154e+01 
1.3504514e-01 5.4209155e-01 4.3856747e+01 
1.0361936e-01 4.8715758e-01 4.3855240e+01 
2.0846681e-01 4.8028421e-01 4.4200001e+01 
1.9279444e-01 4.4799727e-01 4.4200001e+01 
-9.2261828e-02 7.6722860e-01 4.3470158e+01 
-1.4701239e-03 6.7547697e-01 4.3552124e+01 
-1.9517080e-01 8.4621930e-01 4.3403992e+01 
-3.1956279e-01 9.1811794e-01 4.3368977e+01 
-3.9574999e-01 8.5323322e-01 4.3367252e+01 
-1.7830023e-01 6.4416617e-01 4.3464752e+01 
-6.7131944e-02 5.7555372e-01 4.3547829e+01 
-2.8202194e-01 7.2500783e-01 4.3397518e+01 
-4.3632844e-01 9.6406585e-01 4.3303261e+01 
1.5138821e-01 5.3037512e-01 4.3609200e+01 
1.2119007e-01 4.7490793e-01 4.3606068e+01 
-8.7566733e-02 7.6566672e-01 4.3329563e+01 
-1.7495437e-01 6.4045686e-01 4.3323273e+01 
-3.1819177e-01 9.1839045e-01 4.3237537e+01 
-3.9568463e-01 8.5271639e-01 4.3235813e+01 
2.2269404e-02 6.5294570e-01 4.3398811e+01 
-1.9201367e-01 8.4610778e-01 4.3262066e+01 
-3.8899176e-02 5.5709696e-01 4.3393635e+01 
-2.8052819e-01 7.2267252e-01 4.3254715e+01 
3.7877345e-01 3.8273901e-01 4.4200001e+01 
-4.3632776e-01 9.6406174e-01 4.3171322e+01 
3.9241230e-01 3.7329337e-01 4.3965439e+01 
1.0283732e-02 6.6872352e-01 4.3271511e+01 
-5.6385640e-02 5.6585240e-01 4.3265472e+01 
-8.2753494e-02 7.6403379e-01 4.3186119e+01 
-4.0345609e-01 8.6371827e-01 4.3104889e+01 
-3.1680310e-01 9.1865683e-01 4.3105087e+01 
-1.7150842e-01 6.3665158e-01 4.3179005e+01 
-1.8879703e-01 8.4598809e-01 4.3117241e+01 
-2.7900568e-01 7.2029078e-01 4.3109074e+01 
4.0610775e-01 3.6380205e-01 4.3729839e+01 
1.6776134e-01 5.1882964e-01 4.3331150e+01 
-4.3632707e-01 9.6405768e-01 4.3038357e+01 
1.4031014e-01 4.6124566e-01 4.3307755e+01 
3.4952711e-02 6.4519531e-01 4.3111935e+01 
-7.7818394e-02 7.6232505e-01 4.3039719e+01 
-3.1539652e-01 9.1891652e-01 4.2971603e+01 
-3.9551663e-01 8.5160977e-01 4.2969879e+01 
-2.6899155e-02 5.4666573e-01 4.3105160e+01 
-1.6795819e-01 6.3274628e-01 4.3031849e+01 
-1.8551964e-01 8.4585863e-01 4.2969406e+01 
4.1985780e-01 3.5425979e-01 4.3493168e+01 
-2.7745360e-01 7.1786088e-01 4.2960495e+01 
-4.3632638e-01 9.6405357e-01 4.2904346e+01 
2.2723136e-02 6.6139150e-01 4.2979332e+01 
-4.4916678e-02 5.5559248e-01 4.2971806e+01 
-3.1397179e-01 9.1916907e-01 4.2837063e+01 
-3.9541367e-01 8.5101974e-01 4.2835335e+01 
-7.2757579e-02 7.6053542e-01 4.2890255e+01 
-1.6429928e-01 6.2873662e-01 4.2881699e+01 
1.8463810e-01 5.0694346e-01 4.3035332e+01 
-1.8218029e-01 8.4571803e-01 4.2818455e+01 
1.5503895e-01 4.5003417e-01 4.3027725e+01 
-2.7587104e-01 7.1538109e-01 4.2808868e+01 
4.3366045e-01 3.4466109e-01 4.3255390e+01 
-4.3632573e-01 9.6404958e-01 4.2769268e+01 
-3.8429454e-01 8.3484912e-01 4.2710606e+01 
-3.1252861e-01 9.1941386e-01 4.2701439e+01 
4.8404284e-02 6.3678014e-01 4.2813030e+01 
-1.4070326e-02 5.3562075e-01 4.2804932e+01 
-6.7567028e-02 7.5865942e-01 4.2737610e+01 
-1.6052702e-01 6.2461799e-01 4.2728443e+01 
-1.7877772e-01 8.4556442e-01 4.2664265e+01 
-4.3632504e-01 9.6404558e-01 4.2633099e+01 
-2.7425703e-01 7.1284944e-01 4.2654083e+01 
4.4751364e-01 3.3500037e-01 4.3016472e+01 
3.5901129e-02 6.5341437e-01 4.2674721e+01 
-3.7959340e-01 8.2794034e-01 4.2568317e+01 
-3.1106678e-01 9.1965032e-01 4.2564713e+01 
-3.2659348e-02 5.4472327e-01 4.2665997e+01 
2.0396979e-01 4.9291667e-01 4.2740131e+01 
-6.2242586e-02 7.5669110e-01 4.2581669e+01 
1.7765003e-01 4.3475360e-01 4.2732578e+01 
-1.5663649e-01 6.2038553e-01 4.2571964e+01 
-4.3632439e-01 9.6404165e-01 4.2495808e+01 
-1.7531081e-01 8.4539592e-01 4.2506718e+01 
-2.7261066e-01 7.1026409e-01 4.2496017e+01 
-3.0958602e-01 9.1987789e-01 4.2426853e+01 
-3.7859210e-01 8.2613736e-01 4.2421188e+01 
4.6141517e-01 3.2527190e-01 4.2776375e+01 
6.2686495e-02 6.2762415e-01 4.2501175e+01 
-3.3570320e-04 5.2390522e-01 4.2492062e+01 
-5.6779940e-02 7.5462401e-01 4.2422298e+01 
-4.3632373e-01 9.6403772e-01 4.2357380e+01 
-1.5262254e-01 6.1603409e-01 4.2412144e+01 
-1.7177837e-01 8.4521037e-01 4.2345684e+01 
-2.7093092e-01 7.0762289e-01 4.2334549e+01 
-3.0808610e-01 9.2009580e-01 4.2287842e+01 
-3.8275370e-01 8.3137155e-01 4.2275047e+01 
4.9876589e-02 6.4471585e-01 4.2356720e+01 
-1.9539909e-02 5.3318781e-01 4.2347118e+01 
-4.3632311e-01 9.6403396e-01 4.2217781e+01 
2.1959943e-01 4.8236796e-01 4.2385345e+01 
-5.1174615e-02 7.5245124e-01 4.2259373e+01 
1.9034323e-01 4.2346162e-01 4.2378918e+01 
-1.4847966e-01 6.1155808e-01 4.2248856e+01 
4.7536272e-01 3.1546980e-01 4.2535065e+01 
-1.6817927e-01 8.4500539e-01 4.2181026e+01 
-2.6921678e-01 7.0492369e-01 4.2169544e+01 
-3.0656675e-01 9.2030340e-01 4.2147648e+01 
-3.9470181e-01 8.4769493e-01 4.2145920e+01 
7.7868804e-02 6.1763972e-01 4.2175373e+01 
-4.3632248e-01 9.6403021e-01 4.2076988e+01 
1.4390758e-02 5.1145434e-01 4.2165581e+01 
-4.5421973e-02 7.5016522e-01 4.2092751e+01 
-1.4420210e-01 6.0695171e-01 4.2081959e+01 
-3.0502778e-01 9.2049998e-01 4.2006248e+01 
-4.0175444e-01 8.5747409e-01 4.2004128e+01 
-1.6451253e-01 8.4477836e-01 4.2012604e+01 
4.8935395e-01 3.0558801e-01 4.2292507e+01 
-2.6746723e-01 7.0216429e-01 4.2000870e+01 
6.4714879e-02 6.3520777e-01 4.2024277e+01 
-4.3632188e-01 9.6402657e-01 4.1934975e+01 
-5.4755262e-03 5.2092212e-01 4.2014156e+01 
-2.3078828e-01 8.1064087e-01 4.1931458e+01 
2.3550548e-01 4.7116494e-01 4.2073269e+01 
2.0610523e-01 4.1123796e-01 4.2066772e+01 
-3.9517213e-02 7.4775779e-01 4.1922287e+01 
-1.3978374e-01 6.0220873e-01 4.1911320e+01 
-3.0346894e-01 9.2068475e-01 4.1863613e+01 
-3.9432141e-01 8.4618556e-01 4.1861881e+01 
-1.6077711e-01 8.4452641e-01 4.1840263e+01 
-2.6568118e-01 6.9934219e-01 4.1828377e+01 
-4.3632129e-01 9.6402299e-01 4.1791718e+01 
5.0338638e-01 2.9562023e-01 4.2048656e+01 
9.4028555e-02 6.0672593e-01 4.1834507e+01 
3.0205652e-02 4.9819478e-01 4.1824417e+01 
-3.8116732e-01 8.2744831e-01 4.1725647e+01 
-3.0189002e-01 9.2085695e-01 4.1719719e+01 
-3.3455357e-02 7.4522001e-01 4.1747829e+01 
-1.3521814e-01 5.9732240e-01 4.1736786e+01 
-4.3632072e-01 9.6401960e-01 4.1647179e+01 
-1.5697217e-01 8.4424627e-01 4.1663853e+01 
-2.6385748e-01 6.9645494e-01 4.1651920e+01 
8.0488607e-02 6.2478805e-01 4.1676235e+01 
2.6870471e-01 4.4547972e-01 4.1752304e+01 
9.6269641e-03 5.0785345e-01 4.1665993e+01 
2.4764967e-01 3.8646612e-01 4.1743168e+01 
-3.0029076e-01 9.2101562e-01 4.1574532e+01 
-3.9388368e-01 8.4456980e-01 4.1572796e+01 
5.1745731e-01 2.8556010e-01 4.1803486e+01 
-2.7231261e-02 7.4254233e-01 4.1569210e+01 
-1.3049847e-01 5.9228569e-01 4.1558201e+01 
-4.3632016e-01 9.6401632e-01 4.1501339e+01 
-1.5309690e-01 8.4393430e-01 4.1483204e+01 
-2.6199502e-01 6.9349992e-01 4.1471333e+01 
-2.9867104e-01 9.2115986e-01 4.1428024e+01 
-3.9364263e-01 8.4372103e-01 4.1426289e+01 
1.1125199e-01 5.9476525e-01 4.1477348e+01 
4.7217656e-02 4.8404291e-01 4.1467384e+01 
-4.3631962e-01 9.6401310e-01 4.1354160e+01 
-2.0839609e-02 7.3971421e-01 4.1386261e+01 
-1.2561750e-01 5.8709091e-01 4.1375404e+01 
5.3156406e-01 2.7540097e-01 4.1556946e+01 
-1.4915068e-01 8.4358656e-01 4.1298138e+01 
-2.9703063e-01 9.2128879e-01 4.1280167e+01 
-3.9338648e-01 8.4284443e-01 4.1278431e+01 
-2.6009262e-01 6.9047421e-01 4.1286449e+01 
2.9365057e-01 4.2687622e-01 4.1391586e+01 
9.7278498e-02 6.1333776e-01 4.1311302e+01 
2.7470219e-01 3.6807936e-01 4.1382729e+01 
2.5872495e-02 4.9389899e-01 4.1301384e+01 
-4.3631911e-01 9.6401012e-01 4.1205620e+01 
-1.4274905e-02 7.3672432e-01 4.1198803e+01 
-1.2056758e-01 5.8173001e-01 4.1188221e+01 
-2.9536936e-01 9.2140132e-01 4.1130928e+01 
[...]
POINT_DATA 4496
FIELD FieldData 1
DISPLACEMENT 3 4496  float
-3.1915683e-02 -2.9313879e-02 1.7658285e-03 
-3.1722579e-02 -2.9118940e-02 1.7507817e-03 
-3.1912375e-02 -2.9311085e-02 1.8630476e-03 
-3.1921130e-02 -2.9318739e-02 1.6523794e-03 
-3.1628110e-02 -2.9022975e-02 1.6365291e-03 
-3.1622410e-02 -2.9018359e-02 1.8393442e-03 
-3.1528123e-02 -2.8922640e-02 1.7356292e-03 
-3.1910446e-02 -2.9309504e-02 1.9278064e-03 
-3.1922508e-02 -2.9320059e-02 1.6395439e-03 
-3.1715449e-02 -2.9112676e-02 1.9168535e-03 
-3.1725872e-02 -2.9121550e-02 1.6230398e-03 
-3.1432994e-02 -2.8826002e-02 1.6207225e-03 
-3.1427171e-02 -2.8821280e-02 1.8265859e-03 
-3.1516816e-02 -2.8912183e-02 1.9056932e-03 
-3.1909648e-02 -2.9308900e-02 1.9640208e-03 
-3.1525683e-02 -2.8919453e-02 1.6062395e-03 
-3.1332288e-02 -2.8724944e-02 1.7203675e-03 
-3.1922013e-02 -2.9319728e-02 1.6687919e-03 
-3.1426463e-02 -2.8819699e-02 1.6713321e-03 
-3.1666432e-02 -2.9063432e-02 1.9556705e-03 
-3.1676807e-02 -2.9072266e-02 1.6634365e-03 
-3.1230539e-02 -2.8622799e-02 1.8137346e-03 
-3.1236485e-02 -2.8627625e-02 1.6047899e-03 
-3.1314433e-02 -2.8707901e-02 1.8943156e-03 
-3.1321824e-02 -2.8713651e-02 1.5891325e-03 
-3.1910207e-02 -2.9309498e-02 1.9693491e-03 
-3.1409878e-02 -2.8804449e-02 1.9372730e-03 
-3.1135045e-02 -2.8525831e-02 1.7049932e-03 
-3.1920232e-02 -2.9318279e-02 1.7305603e-03 
-3.1419087e-02 -2.8812021e-02 1.6290001e-03 
-3.1108169e-02 -2.8499706e-02 1.8827111e-03 
-3.1032484e-02 -2.8422881e-02 1.8007878e-03 
-3.1038558e-02 -2.8427819e-02 1.5887306e-03 
-3.1509295e-02 -2.8904801e-02 1.9433488e-03 
-3.1114172e-02 -2.8504025e-02 1.5717134e-03 
-3.1205462e-02 -2.8598119e-02 1.9259449e-03 
-3.1517107e-02 -2.8911389e-02 1.7107655e-03 
-3.1684559e-02 -2.9081706e-02 1.9519752e-03 
-3.1213252e-02 -2.8604232e-02 1.6123493e-03 
-3.1691290e-02 -2.9087437e-02 1.7620380e-03 
-3.0936368e-02 -2.8325275e-02 1.6895096e-03 
-3.1910960e-02 -2.9310279e-02 1.9724814e-03 
-3.1321451e-02 -2.8715203e-02 1.9343661e-03 
-3.1334519e-02 -2.8726999e-02 1.6841373e-03 
-3.1917520e-02 -2.9316027e-02 1.8167081e-03 
-3.0897893e-02 -2.8287467e-02 1.8708681e-03 
-3.0997099e-02 -2.8387805e-02 1.9143809e-03 
-3.0832984e-02 -2.8221512e-02 1.7877459e-03 
-3.0839179e-02 -2.8226553e-02 1.5725426e-03 
-3.0902600e-02 -2.8290439e-02 1.5539678e-03 
-3.1003559e-02 -2.8392551e-02 1.5954057e-03 
-3.1695414e-02 -2.9092800e-02 1.9767203e-03 
-3.1100569e-02 -2.8492235e-02 1.9186796e-03 
-3.1698182e-02 -2.9094975e-02 1.8662302e-03 
-3.0736230e-02 -2.8123250e-02 1.6739048e-03 
-3.1105412e-02 -2.8495802e-02 1.6804312e-03 
-3.1381957e-02 -2.8776342e-02 1.9494152e-03 
-3.1385265e-02 -2.8778940e-02 1.8154352e-03 
-3.1910531e-02 -2.9310048e-02 2.0076993e-03 
-3.1913679e-02 -2.9312808e-02 1.9333680e-03 
-3.0784655e-02 -2.8173381e-02 1.9025693e-03 
-3.0911777e-02 -2.8301682e-02 1.9097573e-03 
-3.0683469e-02 -2.8071048e-02 1.8587778e-03 
-3.0632006e-02 -2.8018659e-02 1.7746008e-03 
-3.0638333e-02 -2.8023809e-02 1.5562262e-03 
-3.0789878e-02 -2.8176848e-02 1.5781702e-03 
-3.0915903e-02 -2.8304430e-02 1.6528151e-03 
-3.0686971e-02 -2.8072776e-02 1.5358927e-03 
-3.0534605e-02 -2.7919738e-02 1.6581864e-03 
-3.1000508e-02 -2.8391307e-02 1.9266878e-03 
-3.1001277e-02 -2.8391356e-02 1.7935908e-03 
-3.0567992e-02 -2.7954705e-02 1.8904972e-03 
-3.0572066e-02 -2.7956992e-02 1.5606214e-03 
-3.0429527e-02 -2.7814304e-02 1.7613545e-03 
-3.0435983e-02 -2.7819566e-02 1.5397716e-03 
-3.0675806e-02 -2.8063497e-02 1.8929300e-03 
-3.0464755e-02 -2.7850311e-02 1.8464267e-03 
-3.0678023e-02 -2.8064396e-02 1.6491676e-03 
-3.0467156e-02 -2.7850889e-02 1.5174787e-03 
-3.1907097e-02 -2.9307203e-02 2.1185677e-03 
-3.0331464e-02 -2.7714700e-02 1.6423580e-03 
-3.1545639e-02 -2.8942328e-02 2.0967601e-03 
-3.0479433e-02 -2.7865309e-02 1.8836970e-03 
-3.0481121e-02 -2.7865574e-02 1.6204913e-03 
-3.0346965e-02 -2.7731640e-02 1.8781493e-03 
-3.0234130e-02 -2.7615860e-02 1.5292158e-03 
-3.0225514e-02 -2.7608404e-02 1.7480154e-03 
-3.0350002e-02 -2.7732845e-02 1.5427693e-03 
-3.0241607e-02 -2.7625117e-02 1.8337970e-03 
-3.0243009e-02 -2.7624650e-02 1.4987029e-03 
-3.1182580e-02 -2.8575845e-02 2.0748384e-03 
-3.0572133e-02 -2.7958930e-02 1.9006231e-03 
-3.0126778e-02 -2.7508112e-02 1.6264165e-03 
-3.0541668e-02 -2.7927466e-02 1.7660778e-03 
-3.0233895e-02 -2.7617496e-02 1.8660023e-03 
-3.0121427e-02 -2.7504036e-02 1.8655143e-03 
-3.0019961e-02 -2.7400965e-02 1.7345604e-03 
-3.0026672e-02 -2.7406437e-02 1.5064920e-03 
-3.0233864e-02 -2.7616108e-02 1.6169307e-03 
-3.0123519e-02 -2.7504269e-02 1.5245810e-03 
-3.0013876e-02 -2.7395310e-02 1.8208857e-03 
-3.0817892e-02 -2.8207719e-02 2.0527812e-03 
-3.0014386e-02 -2.7393902e-02 1.4795817e-03 
-2.9920531e-02 -2.7299965e-02 1.6103365e-03 
-3.0029422e-02 -2.7411154e-02 1.8564020e-03 
-3.0029066e-02 -2.7409339e-02 1.5871176e-03 
-2.9812813e-02 -2.7191933e-02 1.7209986e-03 
-2.9819677e-02 -2.7197536e-02 1.4896651e-03 
-2.9891226e-02 -2.7271746e-02 1.8525737e-03 
-2.9892502e-02 -2.7271116e-02 1.5060835e-03 
-3.0116510e-02 -2.7499096e-02 1.8726728e-03 
-2.9781399e-02 -2.7160730e-02 1.8076677e-03 
-3.0110437e-02 -2.7492248e-02 1.7378250e-03 
-2.9781152e-02 -2.7158532e-02 1.4600889e-03 
-3.0451570e-02 -2.7837981e-02 2.0305971e-03 
-2.9712694e-02 -2.7090238e-02 1.5941564e-03 
-2.9628234e-02 -2.7004318e-02 1.4668070e-03 
-2.9604079e-02 -2.6981333e-02 1.7073278e-03 
-2.9773660e-02 -2.7153075e-02 1.8377872e-03 
-2.9771797e-02 -2.7149823e-02 1.5836853e-03 
-2.9656198e-02 -2.7034620e-02 1.8393219e-03 
-2.9656759e-02 -2.7033240e-02 1.4872242e-03 
-2.9544048e-02 -2.6921272e-02 1.7941467e-03 
-2.9503247e-02 -2.6878901e-02 1.5778446e-03 
-2.9543111e-02 -2.6918324e-02 1.4401950e-03 
-3.0083599e-02 -2.7466608e-02 2.0082567e-03 
-2.9560521e-02 -2.6938032e-02 1.8277647e-03 
-2.9409595e-02 -2.6783694e-02 1.4463528e-03 
-2.9393720e-02 -2.6769105e-02 1.6935328e-03 
-2.9558556e-02 -2.6934579e-02 1.5526467e-03 
-2.9662058e-02 -2.7040537e-02 1.8452825e-03 
-2.9416196e-02 -2.6792478e-02 1.8257522e-03 
-2.9655954e-02 -2.7033679e-02 1.7136456e-03 
-2.9416157e-02 -2.6790479e-02 1.4680509e-03 
-2.9292153e-02 -2.6665930e-02 1.5613839e-03 
-2.9301597e-02 -2.6676683e-02 1.7803111e-03 
-2.9300140e-02 -2.6673190e-02 1.4199358e-03 
-2.9181683e-02 -2.6555223e-02 1.6796237e-03 
-2.9183483e-02 -2.6555574e-02 1.4275922e-03 
-2.9714033e-02 -2.7093701e-02 1.9857658e-03 
-2.9293826e-02 -2.6668973e-02 1.8081645e-03 
-2.9290589e-02 -2.6664326e-02 1.5493729e-03 
-2.9171024e-02 -2.6545163e-02 1.8118141e-03 
-2.9079389e-02 -2.6451316e-02 1.5448221e-03 
-2.9170508e-02 -2.6542678e-02 1.4484931e-03 
-2.9053908e-02 -2.6426859e-02 1.7661235e-03 
-2.9052049e-02 -2.6422931e-02 1.3992733e-03 
-2.8967984e-02 -2.6339697e-02 1.6655950e-03 
-2.8958822e-02 -2.6328988e-02 1.4119395e-03 
-2.9071398e-02 -2.6444612e-02 1.7976336e-03 
-2.9068334e-02 -2.6440056e-02 1.5170327e-03 
-2.8864942e-02 -2.6235057e-02 1.5281423e-03 
-2.9116310e-02 -2.6489966e-02 1.8105137e-03 
-2.8920518e-02 -2.6292514e-02 1.7975065e-03 
-2.9112143e-02 -2.6485058e-02 1.6734904e-03 
-2.8919658e-02 -2.6289681e-02 1.4285914e-03 
-2.9342659e-02 -2.6719010e-02 1.9630685e-03 
-2.8800789e-02 -2.6171608e-02 1.7515764e-03 
-2.8798660e-02 -2.6167383e-02 1.3782048e-03 
-2.8752590e-02 -2.6122505e-02 1.6514407e-03 
-2.8760098e-02 -2.6128653e-02 1.4034951e-03 
-2.8793022e-02 -2.6163878e-02 1.7770285e-03 
-2.8648796e-02 -2.6017088e-02 1.5113540e-03 
-2.8788898e-02 -2.6158337e-02 1.5139839e-03 
-2.8664485e-02 -2.6034348e-02 1.7828170e-03 
-2.8663443e-02 -2.6031297e-02 1.4082895e-03 
-2.8535437e-02 -2.5903543e-02 1.6372177e-03 
-2.8542211e-02 -2.5908977e-02 1.3910080e-03 
-2.8542044e-02 -2.5910735e-02 1.7366393e-03 
-2.8969651e-02 -2.6342727e-02 1.9401998e-03 
-2.8539823e-02 -2.5906395e-02 1.3566939e-03 
-2.8560666e-02 -2.5929596e-02 1.7659194e-03 
-2.8430872e-02 -2.5797376e-02 1.4944656e-03 
-2.8557006e-02 -2.5924448e-02 1.4802370e-03 
-2.8423799e-02 -2.5790680e-02 1.5724278e-03 
-2.8636780e-02 -2.6006382e-02 1.7803208e-03 
-2.8632576e-02 -2.6001442e-02 1.6416939e-03 
-2.8402735e-02 -2.5770500e-02 1.7677323e-03 
-2.8401645e-02 -2.5767379e-02 1.3876063e-03 
-2.8316543e-02 -2.5682893e-02 1.6228643e-03 
-2.8324312e-02 -2.5689268e-02 1.3681503e-03 
-2.8277481e-02 -2.5644070e-02 1.7213603e-03 
-2.8275296e-02 -2.5639687e-02 1.3347144e-03 
-2.8211154e-02 -2.5575880e-02 1.4774058e-03 
-2.8595045e-02 -2.5964977e-02 1.9171742e-03 
-2.8269738e-02 -2.5636345e-02 1.7442406e-03 
-2.8265301e-02 -2.5630495e-02 1.4774475e-03 
-2.8115908e-02 -2.5479138e-02 1.3432613e-03 
-2.8095827e-02 -2.5460439e-02 1.6083416e-03 
-2.8135024e-02 -2.5500664e-02 1.7522305e-03 
-2.8134042e-02 -2.5497645e-02 1.3664989e-03 
-2.7989615e-02 -2.5352597e-02 1.4601771e-03 
-2.8006889e-02 -2.5371360e-02 1.7056512e-03 
-2.8004901e-02 -2.5367165e-02 1.3123562e-03 
-2.8026728e-02 -2.5391428e-02 1.7324688e-03 
-2.8144183e-02 -2.5509868e-02 1.7533049e-03 
-2.8023018e-02 -2.5386244e-02 1.4421695e-03 
-2.8135384e-02 -2.5500357e-02 1.6288314e-03 
-2.7873268e-02 -2.5236197e-02 1.5936835e-03 
-2.7881332e-02 -2.5242765e-02 1.3321940e-03 
-2.8218921e-02 -2.5585894e-02 1.8939758e-03 
-2.7861187e-02 -2.5224734e-02 1.7362613e-03 
-2.7860506e-02 -2.5221981e-02 1.3450797e-03 
-2.7766287e-02 -2.5127599e-02 1.4428479e-03 
-2.7730037e-02 -2.5092468e-02 1.6894814e-03 
-2.7728440e-02 -2.5088623e-02 1.2895607e-03 
-2.7648922e-02 -2.5010180e-02 1.5788922e-03 
-2.7657116e-02 -2.5016934e-02 1.3140424e-03 
-2.7722331e-02 -2.5084766e-02 1.7095866e-03 
-2.7718255e-02 -2.5079280e-02 1.4397175e-03 
-2.7541112e-02 -2.4900815e-02 1.4254607e-03 
-2.7580984e-02 -2.4942527e-02 1.7198093e-03 
-2.7580773e-02 -2.4940195e-02 1.3231642e-03 
-2.7840914e-02 -2.5204964e-02 1.8704701e-03 
-2.7446743e-02 -2.4807164e-02 1.6728867e-03 
-2.7422702e-02 -2.4782397e-02 1.5640458e-03 
-2.7430955e-02 -2.4789214e-02 1.2957295e-03 
-2.7445672e-02 -2.4803828e-02 1.2661623e-03 
-2.7591551e-02 -2.4953129e-02 1.7199622e-03 
-2.7467905e-02 -2.4828497e-02 1.6970587e-03 
-2.7583044e-02 -2.4943953e-02 1.5993774e-03 
-2.7464932e-02 -2.4824036e-02 1.4028420e-03 
-2.7314007e-02 -2.4672115e-02 1.4078956e-03 
-2.7294235e-02 -2.4653712e-02 1.7029321e-03 
-2.7294580e-02 -2.4652032e-02 1.3008214e-03 
-2.7194511e-02 -2.4552606e-02 1.5490311e-03 
-2.7202994e-02 -2.4559589e-02 1.2773079e-03 
-2.7156699e-02 -2.4515152e-02 1.6557929e-03 
-2.7156416e-02 -2.4512537e-02 1.2423940e-03 
-2.7461378e-02 -2.4822686e-02 1.8467827e-03 
-2.7084984e-02 -2.4441497e-02 1.3902496e-03 
-2.7149094e-02 -2.4507489e-02 1.6730127e-03 
-2.7145978e-02 -2.4502994e-02 1.4007199e-03 
-2.6964443e-02 -2.4321049e-02 1.5339048e-03 
-2.6972977e-02 -2.4328047e-02 1.2587437e-03 
-2.7000561e-02 -2.4358144e-02 1.6854268e-03 
-2.7001815e-02 -2.4357269e-02 1.2781223e-03 
-2.6854008e-02 -2.4209039e-02 1.3723777e-03 
-2.6859764e-02 -2.4216257e-02 1.6382217e-03 
-2.6860351e-02 -2.4214620e-02 1.2180583e-03 
-2.7012678e-02 -2.4370275e-02 1.6851746e-03 
-2.7005183e-02 -2.4362138e-02 1.5692118e-03 
-2.6852114e-02 -2.4208594e-02 1.6537564e-03 
-2.7080296e-02 -2.4439014e-02 1.8229296e-03 
-2.6732391e-02 -2.4087502e-02 1.5185202e-03 
-2.6741121e-02 -2.4094729e-02 1.2401057e-03 
-2.6849816e-02 -2.4204966e-02 1.3807551e-03 
-2.6699925e-02 -2.4055546e-02 1.6674720e-03 
-2.6702106e-02 -2.4055723e-02 1.2548979e-03 
-2.6621128e-02 -2.3974750e-02 1.3544942e-03 
-2.6555564e-02 -2.3910262e-02 1.6201279e-03 
-2.6557403e-02 -2.3909783e-02 1.1932357e-03 
-2.6498450e-02 -2.3852257e-02 1.5030921e-03 
-2.6507210e-02 -2.3859480e-02 1.2213008e-03 
-2.6548034e-02 -2.3902617e-02 1.6340594e-03 
-2.6466968e-02 -2.3819519e-02 1.3221547e-03 
-2.6546746e-02 -2.3900039e-02 1.3604937e-03 
-2.6386274e-02 -2.3738587e-02 1.3363772e-03 
-2.6697246e-02 -2.4053385e-02 1.7987044e-03 
-2.6539136e-02 -2.3893727e-02 1.6512305e-03 
-2.6391888e-02 -2.3745766e-02 1.6487318e-03 
-2.6537566e-02 -2.3891555e-02 1.5197572e-03 
-2.6395360e-02 -2.3747196e-02 1.2312571e-03 
-2.6262479e-02 -2.3614945e-02 1.4874275e-03 
-2.6271397e-02 -2.3622418e-02 1.2023512e-03 
-2.6244070e-02 -2.3597021e-02 1.6012930e-03 
-2.6247121e-02 -2.3597848e-02 1.1680893e-03 
-2.6149442e-02 -2.3500513e-02 1.3182765e-03 
-2.6236495e-02 -2.3589319e-02 1.6137885e-03 
-2.6236383e-02 -2.3588043e-02 1.3398739e-03 
-2.6076358e-02 -2.3428539e-02 1.6295481e-03 
-2.6024526e-02 -2.3375737e-02 1.4717323e-03 
-2.6033521e-02 -2.3383310e-02 1.1832603e-03 
-2.6081217e-02 -2.3431461e-02 1.2071092e-03 
-2.6312698e-02 -2.3666631e-02 1.7744208e-03 
-2.5924806e-02 -2.3276119e-02 1.5821490e-03 
-2.5910512e-02 -2.3260364e-02 1.2999787e-03 
-2.6111649e-02 -2.3463555e-02 1.5434334e-03 
-2.6106758e-02 -2.3459088e-02 1.6437345e-03 
-2.5929464e-02 -2.3278642e-02 1.1421437e-03 
-2.5917254e-02 -2.3268433e-02 1.5928656e-03 
-2.5918461e-02 -2.3268497e-02 1.3189340e-03 
-2.5784403e-02 -2.3134507e-02 1.4559050e-03 
-2.5793526e-02 -2.3142172e-02 1.1640391e-03 
-2.5752902e-02 -2.3103505e-02 1.6097154e-03 
-2.5759468e-02 -2.3108151e-02 1.1825359e-03 
-2.5669398e-02 -2.3018122e-02 1.2815329e-03 
-2.5926618e-02 -2.3278482e-02 1.7496629e-03 
-2.5597390e-02 -2.2947237e-02 1.5623855e-03 
-2.5603980e-02 -2.2951692e-02 1.1156191e-03 
-2.5542356e-02 -2.2891480e-02 1.4397093e-03 
-2.5551533e-02 -2.2899132e-02 1.1448018e-03 
-2.5724797e-02 -2.3074834e-02 1.5179028e-03 
-2.5720028e-02 -2.3070451e-02 1.6189427e-03 
-2.5585005e-02 -2.2934666e-02 1.5709575e-03 
-2.5585108e-02 -2.2933710e-02 1.2951255e-03 
-2.5465405e-02 -2.2813480e-02 1.2992193e-03 
-2.5426574e-02 -2.2774387e-02 1.2628889e-03 
-2.5424289e-02 -2.2773519e-02 1.5894962e-03 
-2.5434624e-02 -2.2781957e-02 1.1555055e-03 
-2.5300516e-02 -2.2648698e-02 1.4212655e-03 
-2.5309848e-02 -2.2656552e-02 1.1264391e-03 
-2.5267569e-02 -2.2616213e-02 1.5420242e-03 
-2.5538983e-02 -2.2889009e-02 1.7246704e-03 
-2.5279585e-02 -2.2626113e-02 1.0895341e-03 
-2.5185728e-02 -2.2532685e-02 1.2446319e-03 
-2.5248196e-02 -2.2596573e-02 1.5496336e-03 
-2.5257641e-02 -2.2604991e-02 1.2637700e-03 
-2.5337407e-02 -2.2685857e-02 1.4930133e-03 
-2.5332781e-02 -2.2681588e-02 1.5942245e-03 
-2.5144298e-02 -2.2491241e-02 1.2748223e-03 
-2.5060670e-02 -2.2408163e-02 1.4029783e-03 
-2.5097709e-02 -2.2445766e-02 1.5694126e-03 
-2.5069892e-02 -2.2415794e-02 1.1082235e-03 
-2.5113298e-02 -2.2459654e-02 1.1277185e-03 
-2.4946790e-02 -2.2293000e-02 1.2263535e-03 
-2.4943963e-02 -2.2291632e-02 1.5219405e-03 
-2.4960769e-02 -2.2306353e-02 1.0640706e-03 
-2.5151720e-02 -2.2500232e-02 1.6995220e-03 
-2.4925075e-02 -2.2272479e-02 1.5299106e-03 
-2.4939539e-02 -2.2285847e-02 1.2327237e-03 
-2.4822576e-02 -2.2169381e-02 1.3848508e-03 
-2.4831880e-02 -2.2177164e-02 1.0902383e-03 
-2.4942921e-02 -2.2290433e-02 1.5470849e-03 
-2.4949519e-02 -2.2296587e-02 1.4107878e-03 
-2.4777208e-02 -2.2124497e-02 1.5496174e-03 
-2.4797298e-02 -2.2142738e-02 1.1005130e-03 
-2.4747657e-02 -2.2093559e-02 1.2444517e-03 
-2.4709726e-02 -2.2055414e-02 1.2083742e-03 
-2.4647342e-02 -2.1992162e-02 1.0390398e-03 
-2.4626173e-02 -2.1973150e-02 1.5020964e-03 
-2.4586482e-02 -2.1932732e-02 1.3667626e-03 
-2.4595810e-02 -2.1940621e-02 1.0725257e-03 
-2.4626600e-02 -2.1972267e-02 1.2023757e-03 
-2.4607701e-02 -2.1954458e-02 1.5106304e-03 
-2.4765655e-02 -2.2113193e-02 1.6745222e-03 
-2.4474556e-02 -2.1819817e-02 1.1906801e-03 
-2.4486609e-02 -2.1831349e-02 1.0739261e-03 
-2.4462394e-02 -2.1809222e-02 1.5301047e-03 
-2.4561165e-02 -2.1907922e-02 1.5449210e-03 
-2.4538696e-02 -2.1884810e-02 1.3915756e-03 
-2.4352256e-02 -2.1698169e-02 1.3488946e-03 
-2.4357373e-02 -2.1701830e-02 1.0571209e-03 
-2.4339084e-02 -2.1683237e-02 1.0141943e-03 
-2.4314221e-02 -2.1660699e-02 1.4828524e-03 
-2.4253810e-02 -2.1598972e-02 1.2164313e-03 
-2.4241136e-02 -2.1586046e-02 1.1729405e-03 
-2.4318710e-02 -2.1663798e-02 1.1727987e-03 
-2.4253478e-02 -2.1599647e-02 1.4806538e-03 
-2.4180826e-02 -2.1525256e-02 1.0481429e-03 
-2.4153356e-02 -2.1499731e-02 1.5108031e-03 
-2.4119655e-02 -2.1465236e-02 1.3309827e-03 
-2.4381177e-02 -2.1728206e-02 1.6496453e-03 
-2.4128906e-02 -2.1473141e-02 1.0374283e-03 
-2.4076208e-02 -2.1421149e-02 1.1895327e-03 
-2.4187345e-02 -2.1533081e-02 1.3672207e-03 
-2.4009520e-02 -2.1354286e-02 1.1555029e-03 
-2.4035605e-02 -2.1379670e-02 9.9050382e-04 
-2.4007823e-02 -2.1353930e-02 1.4634129e-03 
-2.4177177e-02 -2.1523599e-02 1.5201346e-03 
-2.4015969e-02 -2.1360934e-02 1.1437514e-03 
-2.3990195e-02 -2.1336174e-02 1.4726963e-03 
-2.3888897e-02 -2.1234399e-02 1.3134062e-03 
-2.3898188e-02 -2.1242307e-02 1.0201541e-03 
-2.3880161e-02 -2.1224516e-02 1.0226669e-03 
-2.3849802e-02 -2.1196015e-02 1.4916552e-03 
-2.3796456e-02 -2.1141166e-02 1.1305074e-03 
-2.3779556e-02 -2.1124341e-02 1.1382012e-03 
-2.3997456e-02 -2.1344204e-02 1.6243825e-03 
-2.3737213e-02 -2.1081289e-02 9.6675381e-04 
-2.3706730e-02 -2.1052826e-02 1.4445017e-03 
-2.3841430e-02 -2.1186808e-02 1.3003417e-03 
-2.3817338e-02 -2.1163356e-02 1.4596202e-03 
-2.3659751e-02 -2.1005422e-02 1.2958482e-03 
-2.3718046e-02 -2.1062821e-02 1.1154263e-03 
-2.3643460e-02 -2.0987542e-02 9.8771497e-04 
-2.3689479e-02 -2.1035492e-02 1.4543593e-03 
-2.3551194e-02 -2.0896088e-02 1.1211894e-03 
-2.3584183e-02 -2.0928523e-02 9.9754403e-04 
-2.3551498e-02 -2.0897802e-02 1.4727773e-03 
-2.3441734e-02 -2.0786023e-02 9.8624267e-04 
-2.3429615e-02 -2.0775266e-02 1.2620200e-03 
-2.3443520e-02 -2.0787723e-02 9.4355084e-04 
-2.3410605e-02 -2.0756995e-02 1.4257673e-03 
-2.3614796e-02 -2.0961380e-02 1.5989561e-03 
-2.3357598e-02 -2.0702943e-02 1.1827374e-03 
-2.3424827e-02 -2.0769918e-02 1.0877891e-03 
-2.3393825e-02 -2.0739980e-02 1.4363052e-03 
-2.3324642e-02 -2.0669745e-02 1.1044140e-03 
-2.3292877e-02 -2.0637726e-02 9.7339135e-04 
-2.3412380e-02 -2.0758703e-02 1.4699819e-03 
-2.3416363e-02 -2.0762265e-02 1.3695442e-03 
-2.3244169e-02 -2.0588646e-02 9.5725874e-04 
-2.3258051e-02 -2.0604428e-02 1.4539604e-03 
-2.3226008e-02 -2.0572118e-02 1.2832650e-03 
-2.3342006e-02 -2.0687429e-02 1.1974730e-03 
-2.3300927e-02 -2.0647120e-02 1.4157237e-03 
-2.3154316e-02 -2.0498952e-02 9.2098577e-04 
-2.3119908e-02 -2.0466585e-02 1.4065938e-03 
-2.3099847e-02 -2.0445209e-02 1.0877119e-03 
-2.3136141e-02 -2.0481493e-02 1.0608125e-03 
-2.3103457e-02 -2.0449931e-02 1.4185199e-03 
-2.3233462e-02 -2.0580415e-02 1.5731739e-03 
-2.2994120e-02 -2.0339008e-02 9.3364919e-04 
-2.2978412e-02 -2.0324968e-02 1.2679350e-03 
-2.3006167e-02 -2.0351263e-02 9.4961090e-04 
-2.2969875e-02 -2.0316891e-02 1.4355670e-03 
-2.2876741e-02 -2.0222491e-02 1.0710858e-03 
-2.3032103e-02 -2.0379063e-02 1.4446955e-03 
-2.3035906e-02 -2.0382486e-02 1.3446261e-03 
-2.2869805e-02 -2.0214744e-02 8.9848536e-04 
-2.2833977e-02 -2.0181395e-02 1.3882339e-03 
-2.2852045e-02 -2.0197881e-02 1.0343735e-03 
-2.2739792e-02 -2.0086741e-02 1.2458180e-03 
-2.2790957e-02 -2.0138130e-02 1.4048138e-03 
-2.2824831e-02 -2.0171126e-02 1.1530629e-03 
-2.2711469e-02 -2.0056801e-02 9.1232144e-04 
-2.2723883e-02 -2.0069545e-02 9.2628808e-04 
-2.2686552e-02 -2.0034194e-02 1.4170549e-03 
-2.2655128e-02 -2.0001473e-02 1.0546828e-03 
-2.2853773e-02 -2.0201370e-02 1.5472150e-03 
-2.2576451e-02 -1.9923216e-02 1.1161998e-03 
-2.2589441e-02 -1.9935293e-02 8.7673159e-04 
-2.2658201e-02 -2.0005755e-02 1.3718092e-03 
-2.2543866e-02 -1.9891245e-02 1.1975254e-03 
-2.2552913e-02 -1.9900877e-02 1.3699062e-03 
-2.2549106e-02 -1.9894974e-02 9.2068681e-04 
-2.2572191e-02 -1.9918818e-02 1.0085171e-03 
-2.2653278e-02 -2.0000983e-02 1.4192492e-03 
-2.2656986e-02 -2.0004285e-02 1.3194906e-03 
-2.2537226e-02 -1.9885037e-02 1.3834389e-03 
-2.2449991e-02 -1.9796131e-02 8.8227418e-04 
-2.2435240e-02 -1.9782221e-02 1.0385278e-03 
-2.2445802e-02 -1.9792408e-02 9.0321712e-04 
-2.2407880e-02 -1.9756317e-02 1.3988585e-03 
-2.2363553e-02 -1.9710114e-02 9.0960064e-04 
-2.2320643e-02 -1.9668777e-02 1.1926880e-03 
-2.2313412e-02 -1.9659949e-02 8.5524627e-04 
-2.2276334e-02 -1.9625306e-02 1.3518784e-03 
-2.2475321e-02 -1.9823916e-02 1.5213368e-03 
-2.2296537e-02 -1.9644054e-02 9.8323880e-04 
-2.2216877e-02 -1.9564647e-02 1.0223942e-03 
-2.2234814e-02 -1.9583747e-02 1.3697395e-03 