# vtk DataFile Version 4.0
vtk output
ASCII
DATASET UNSTRUCTURED_GRID
POINTS 4496 float
-4.3633327e-01 9.6409470e-01 4.4200001e+01 
-4.3633258e-01 9.6409065e-01 4.4074627e+01 
-3.2152572e-01 9.1279918e-01 4.4200001e+01 
-3.8534868e-01 8.4052670e-01 4.4200001e+01 
-3.9589554e-01 8.5545403e-01 4.4010014e+01 
-3.2616228e-01 9.1667932e-01 4.4011734e+01 
-4.3633190e-01 9.6408653e-01 4.3948376e+01 
-2.1293370e-01 8.4677851e-01 4.4200001e+01 
-2.9042658e-01 7.3813015e-01 4.4200001e+01 
-2.1010752e-01 8.4669363e-01 4.4073502e+01 
-2.8908840e-01 7.3604190e-01 4.4072292e+01 
-3.9589015e-01 8.5505831e-01 4.3883316e+01 
-3.2487559e-01 9.1697580e-01 4.3885036e+01 
-2.0722924e-01 8.4660655e-01 4.3944645e+01 
-1.1981077e-01 7.7773046e-01 4.4200001e+01 
-2.8772619e-01 7.3391593e-01 4.3942276e+01 
-4.3633121e-01 9.6408242e-01 4.3821228e+01 
-1.9739023e-01 6.6468561e-01 4.4200001e+01 
-2.9444304e-01 7.8727525e-01 4.3879974e+01 
-8.7554991e-02 7.5255024e-01 4.4042213e+01 
-1.6445170e-01 6.4084798e-01 4.4041008e+01 
-3.2357255e-01 9.1726828e-01 4.3757431e+01 
-3.9587301e-01 8.5463828e-01 4.3755711e+01 
-2.0429766e-01 8.4651643e-01 4.3813354e+01 
-2.8633916e-01 7.3175091e-01 4.3809875e+01 
-2.6899619e-02 6.8901783e-01 4.4200001e+01 
-1.0567340e-01 7.7152997e-01 4.3875790e+01 
-4.3633053e-01 9.6407831e-01 4.3693161e+01 
-8.7133333e-02 5.9509218e-01 4.4200001e+01 
-1.8777622e-01 6.5475601e-01 4.3873402e+01 
-2.0131156e-01 8.4642249e-01 4.3679543e+01 
-3.2225290e-01 9.1755641e-01 4.3628902e+01 
-3.9584404e-01 8.5419410e-01 4.3627178e+01 
-1.0114321e-03 6.6670936e-01 4.3939713e+01 
-2.8492665e-01 7.2954547e-01 4.3675007e+01 
-1.0131179e-01 7.7015632e-01 4.3743176e+01 
-6.0682178e-02 5.7631296e-01 4.3938457e+01 
3.9444737e-02 6.2338209e-01 4.4053139e+01 
-1.8470748e-01 6.5131217e-01 4.3739727e+01 
-7.0938184e-03 5.4737431e-01 4.4052326e+01 
-4.3632981e-01 9.6407413e-01 4.3564159e+01 
7.6947339e-02 5.8804804e-01 4.4200001e+01 
-1.2721874e-02 6.8194175e-01 4.3817982e+01 
-7.7214435e-02 5.8474159e-01 4.3819649e+01 
4.0195532e-02 5.2425718e-01 4.4200001e+01 
-1.9826968e-01 8.4632379e-01 4.3543118e+01 
-9.6842363e-02 7.6872379e-01 4.3607994e+01 
-3.2091641e-01 9.1783977e-01 4.3499420e+01 
-3.9580306e-01 8.5372573e-01 4.3497700e+01 
-2.8348783e-01 7.2729832e-01 4.3537586e+01 
-1.8155001e-01 6.4778340e-01 4.3603539e+01 
1.5678726e-01 5.2239102e-01 4.4060219e+01 
1.0298219e-02 6.6009766e-01 4.3674484e+01 
1.3250886e-01 4.7546524e-01 4.4058990e+01 
-4.3632913e-01 9.6407002e-01 4.3434200e+01 
-5.0139543e-02 5.6696451e-01 4.3671154e+01 
1.3504514e-01 5.4209155e-01 4.3856747e+01 
1.0361936e-01 4.8715758e-01 4.3855240e+01 
2.0846681e-01 4.8028421e-01 4.4200001e+01 
1.9279444e-01 4.4799727e-01 4.4200001e+01 
-9.2261828e-02 7.6722860e-01 4.3470158e+01 
-1.4701239e-03 6.7547697e-01 4.3552124e+01 
-1.9517080e-01 8.4621930e-01 4.3403992e+01 
-3.1956279e-01 9.1811794e-01 4.3368977e+01 
-3.9574999e-01 8.5323322e-01 4.3367252e+01 
-1.7830023e-01 6.4416617e-01 4.3464752e+01 
-6.7131944e-02 5.7555372e-01 4.3547829e+01 
-2.8202194e-01 7.2500783e-01 4.3397518e+01 
-4.3632844e-01 9.6406585e-01 4.3303261e+01 
1.5138821e-01 5.3037512e-01 4.3609200e+01 
1.2119007e-01 4.7490793e-01 4.3606068e+01 
-8.7566733e-02 7.6566672e-01 4.3329563e+01 
-1.7495437e-01 6.4045686e-01 4.3323273e+01 
-3.1819177e-01 9.1839045e-01 4.3237537e+01 
-3.9568463e-01 8.5271639e-01 4.3235813e+01 
2.2269404e-02 6.5294570e-01 4.3398811e+01 
-1.9201367e-01 8.4610778e-01 4.3262066e+01 
-3.8899176e-02 5.5709696e-01 4.3393635e+01 
-2.8052819e-01 7.2267252e-01 4.3254715e+01 
3.7877345e-01 3.8273901e-01 4.4200001e+01 
-4.3632776e-01 9.6406174e-01 4.3171322e+01 
3.9241230e-01 3.7329337e-01 4.3965439e+01 
1.0283732e-02 6.6872352e-01 4.3271511e+01 
-5.6385640e-02 5.6585240e-01 4.3265472e+01 
-8.2753494e-02 7.6403379e-01 4.3186119e+01 
-4.0345609e-01 8.6371827e-01 4.3104889e+01 
-3.1680310e-01 9.1865683e-01 4.3105087e+01 
-1.7150842e-01 6.3665158e-01 4.3179005e+01 
-1.8879703e-01 8.4598809e-01 4.3117241e+01 
-2.7900568e-01 7.2029078e-01 4.3109074e+01 
4.0610775e-01 3.6380205e-01 4.3729839e+01 
1.6776134e-01 5.1882964e-01 4.3331150e+01 
-4.3632707e-01 9.6405768e-01 4.3038357e+01 
1.4031014e-01 4.6124566e-01 4.3307755e+01 
3.4952711e-02 6.4519531e-01 4.3111935e+01 
-7.7818394e-02 7.6232505e-01 4.3039719e+01 
-3.1539652e-01 9.1891652e-01 4.2971603e+01 
-3.9551663e-01 8.5160977e-01 4.2969879e+01 
-2.6899155e-02 5.4666573e-01 4.3105160e+01 
-1.6795819e-01 6.3274628e-01 4.3031849e+01 
-1.8551964e-01 8.4585863e-01 4.2969406e+01 
4.1985780e-01 3.5425979e-01 4.3493168e+01 
-2.7745360e-01 7.1786088e-01 4.2960495e+01 
-4.3632638e-01 9.6405357e-01 4.2904346e+01 
2.2723136e-02 6.6139150e-01 4.2979332e+01 
-4.4916678e-02 5.5559248e-01 4.2971806e+01 
-3.1397179e-01 9.1916907e-01 4.2837063e+01 
-3.9541367e-01 8.5101974e-01 4.2835335e+01 
-7.2757579e-02 7.6053542e-01 4.2890255e+01 
-1.6429928e-01 6.2873662e-01 4.2881699e+01 
1.8463810e-01 5.0694346e-01 4.3035332e+01 
-1.8218029e-01 8.4571803e-01 4.2818455e+01 
1.5503895e-01 4.5003417e-01 4.3027725e+01 
-2.7587104e-01 7.1538109e-01 4.2808868e+01 
4.3366045e-01 3.4466109e-01 4.3255390e+01 
-4.3632573e-01 9.6404958e-01 4.2769268e+01 
-3.8429454e-01 8.3484912e-01 4.2710606e+01 
-3.1252861e-01 9.1941386e-01 4.2701439e+01 
4.8404284e-02 6.3678014e-01 4.2813030e+01 
-1.4070326e-02 5.3562075e-01 4.2804932e+01 
-6.7567028e-02 7.5865942e-01 4.2737610e+01 
-1.6052702e-01 6.2461799e-01 4.2728443e+01 
-1.7877772e-01 8.4556442e-01 4.2664265e+01 
-4.3632504e-01 9.6404558e-01 4.2633099e+01 
-2.7425703e-01 7.1284944e-01 4.2654083e+01 
4.4751364e-01 3.3500037e-01 4.3016472e+01 
3.5901129e-02 6.5341437e-01 4.2674721e+01 
-3.7959340e-01 8.2794034e-01 4.2568317e+01 
-3.1106678e-01 9.1965032e-01 4.2564713e+01 
-3.2659348e-02 5.4472327e-01 4.2665997e+01 
2.0396979e-01 4.9291667e-01 4.2740131e+01 
-6.2242586e-02 7.5669110e-01 4.2581669e+01 
1.7765003e-01 4.3475360e-01 4.2732578e+01 
-1.5663649e-01 6.2038553e-01 4.2571964e+01 
-4.3632439e-01 9.6404165e-01 4.2495808e+01 
-1.7531081e-01 8.4539592e-01 4.2506718e+01 
-2.7261066e-01 7.1026409e-01 4.2496017e+01 
-3.0958602e-01 9.1987789e-01 4.2426853e+01 
-3.7859210e-01 8.2613736e-01 4.2421188e+01 
4.6141517e-01 3.2527190e-01 4.2776375e+01 
6.2686495e-02 6.2762415e-01 4.2501175e+01 
-3.3570320e-04 5.2390522e-01 4.2492062e+01 
-5.6779940e-02 7.5462401e-01 4.2422298e+01 
-4.3632373e-01 9.6403772e-01 4.2357380e+01 
-1.5262254e-01 6.1603409e-01 4.2412144e+01 
-1.7177837e-01 8.4521037e-01 4.2345684e+01 
-2.7093092e-01 7.0762289e-01 4.2334549e+01 
-3.0808610e-01 9.2009580e-01 4.2287842e+01 
-3.8275370e-01 8.3137155e-01 4.2275047e+01 
4.9876589e-02 6.4471585e-01 4.2356720e+01 
-1.9539909e-02 5.3318781e-01 4.2347118e+01 
-4.3632311e-01 9.6403396e-01 4.2217781e+01 
2.1959943e-01 4.8236796e-01 4.2385345e+01 
-5.1174615e-02 7.5245124e-01 4.2259373e+01 
1.9034323e-01 4.2346162e-01 4.2378918e+01 
-1.4847966e-01 6.1155808e-01 4.2248856e+01 
4.7536272e-01 3.1546980e-01 4.2535065e+01 
-1.6817927e-01 8.4500539e-01 4.2181026e+01 
-2.6921678e-01 7.0492369e-01 4.2169544e+01 
-3.0656675e-01 9.2030340e-01 4.2147648e+01 
-3.9470181e-01 8.4769493e-01 4.2145920e+01 
7.7868804e-02 6.1763972e-01 4.2175373e+01 
-4.3632248e-01 9.6403021e-01 4.2076988e+01 
1.4390758e-02 5.1145434e-01 4.2165581e+01 
-4.5421973e-02 7.5016522e-01 4.2092751e+01 
-1.4420210e-01 6.0695171e-01 4.2081959e+01 
-3.0502778e-01 9.2049998e-01 4.2006248e+01 
-4.0175444e-01 8.5747409e-01 4.2004128e+01 
-1.6451253e-01 8.4477836e-01 4.2012604e+01 
4.8935395e-01 3.0558801e-01 4.2292507e+01 
-2.6746723e-01 7.0216429e-01 4.2000870e+01 
6.4714879e-02 6.3520777e-01 4.2024277e+01 
-4.3632188e-01 9.6402657e-01 4.1934975e+01 
-5.4755262e-03 5.2092212e-01 4.2014156e+01 
-2.3078828e-01 8.1064087e-01 4.1931458e+01 
2.3550548e-01 4.7116494e-01 4.2073269e+01 
2.0610523e-01 4.1123796e-01 4.2066772e+01 
-3.9517213e-02 7.4775779e-01 4.1922287e+01 
-1.3978374e-01 6.0220873e-01 4.1911320e+01 
-3.0346894e-01 9.2068475e-01 4.1863613e+01 
-3.9432141e-01 8.4618556e-01 4.1861881e+01 
-1.6077711e-01 8.4452641e-01 4.1840263e+01 
-2.6568118e-01 6.9934219e-01 4.1828377e+01 
-4.3632129e-01 9.6402299e-01 4.1791718e+01 
5.0338638e-01 2.9562023e-01 4.2048656e+01 
9.4028555e-02 6.0672593e-01 4.1834507e+01 
3.0205652e-02 4.9819478e-01 4.1824417e+01 
-3.8116732e-01 8.2744831e-01 4.1725647e+01 
-3.0189002e-01 9.2085695e-01 4.1719719e+01 
-3.3455357e-02 7.4522001e-01 4.1747829e+01 
-1.3521814e-01 5.9732240e-01 4.1736786e+01 
-4.3632072e-01 9.6401960e-01 4.1647179e+01 
-1.5697217e-01 8.4424627e-01 4.1663853e+01 
-2.6385748e-01 6.9645494e-01 4.1651920e+01 
8.0488607e-02 6.2478805e-01 4.1676235e+01 
2.6870471e-01 4.4547972e-01 4.1752304e+01 
9.6269641e-03 5.0785345e-01 4.1665993e+01 
2.4764967e-01 3.8646612e-01 4.1743168e+01 
-3.0029076e-01 9.2101562e-01 4.1574532e+01 
-3.9388368e-01 8.4456980e-01 4.1572796e+01 
5.1745731e-01 2.8556010e-01 4.1803486e+01 
-2.7231261e-02 7.4254233e-01 4.1569210e+01 
-1.3049847e-01 5.9228569e-01 4.1558201e+01 
-4.3632016e-01 9.6401632e-01 4.1501339e+01 
-1.5309690e-01 8.4393430e-01 4.1483204e+01 
-2.6199502e-01 6.9349992e-01 4.1471333e+01 
-2.9867104e-01 9.2115986e-01 4.1428024e+01 
-3.9364263e-01 8.4372103e-01 4.1426289e+01 
1.1125199e-01 5.9476525e-01 4.1477348e+01 
4.7217656e-02 4.8404291e-01 4.1467384e+01 
-4.3631962e-01 9.6401310e-01 4.1354160e+01 
-2.0839609e-02 7.3971421e-01 4.1386261e+01 
-1.2561750e-01 5.8709091e-01 4.1375404e+01 
5.3156406e-01 2.7540097e-01 4.1556946e+01 
-1.4915068e-01 8.4358656e-01 4.1298138e+01 
-2.9703063e-01 9.2128879e-01 4.1280167e+01 
-3.9338648e-01 8.4284443e-01 4.1278431e+01 
-2.6009262e-01 6.9047421e-01 4.1286449e+01 
2.9365057e-01 4.2687622e-01 4.1391586e+01 
9.7278498e-02 6.1333776e-01 4.1311302e+01 
2.7470219e-01 3.6807936e-01 4.1382729e+01 
2.5872495e-02 4.9389899e-01 4.1301384e+01 
-4.3631911e-01 9.6401012e-01 4.1205620e+01 
-1.4274905e-02 7.3672432e-01 4.1198803e+01 
-1.2056758e-01 5.8173001e-01 4.1188221e+01 
-2.9536936e-01 9.2140132e-01 4.1130928e+01 
[...]
POINT_DATA 4496
FIELD FieldData 1
DISPLACEMENT 3 4496  float
-2.8333200e-02 -2.6471296e-02 5.5400417e-03 
-2.7830202e-02 -2.5977893e-02 5.4808171e-03 
-2.8206142e-02 -2.6204763e-02 5.7969741e-03 
-2.8079730e-02 -2.6376806e-02 5.2564424e-03 
-2.7349189e-02 -2.5651170e-02 5.1834015e-03 
-2.7459495e-02 -2.5474198e-02 5.7048197e-03 
-2.7323620e-02 -2.5480928e-02 5.4211807e-03 
-2.8051704e-02 -2.5956735e-02 5.9709027e-03 
-2.7857332e-02 -2.6170610e-02 5.2322024e-03 
-2.7543435e-02 -2.5452122e-02 5.9221368e-03 
-2.7340658e-02 -2.5665320e-02 5.1690103e-03 
-2.6840078e-02 -2.5152536e-02 5.1220288e-03 
-2.6951410e-02 -2.4972342e-02 5.6512826e-03 
-2.7025655e-02 -2.4938153e-02 5.8724619e-03 
-2.7894935e-02 -2.5746956e-02 6.0709696e-03 
-2.6814671e-02 -2.5150834e-02 5.1046540e-03 
-2.6813360e-02 -2.4980336e-02 5.3611165e-03 
-2.7691944e-02 -2.5962081e-02 5.3146263e-03 
-2.6670575e-02 -2.4909310e-02 5.2588889e-03 
-2.7205268e-02 -2.5053769e-02 6.0261250e-03 
-2.6999947e-02 -2.5262190e-02 5.2772672e-03 
-2.6439557e-02 -2.4466831e-02 5.5974480e-03 
-2.6327251e-02 -2.4650197e-02 5.0601456e-03 
-2.6498035e-02 -2.4414441e-02 5.8218222e-03 
-2.6279025e-02 -2.4626886e-02 5.0391350e-03 
-2.7699703e-02 -2.5542254e-02 6.0925842e-03 
-2.6579008e-02 -2.4438541e-02 5.9499540e-03 
-2.6299188e-02 -2.4476059e-02 5.3006313e-03 
-2.7529981e-02 -2.5710762e-02 5.4811528e-03 
-2.6360394e-02 -2.4656037e-02 5.1596849e-03 
-2.5960188e-02 -2.3880657e-02 5.7702060e-03 
-2.5923884e-02 -2.3957586e-02 5.5431454e-03 
-2.5810579e-02 -2.4144072e-02 4.9977396e-03 
-2.6606081e-02 -2.4460763e-02 5.9851608e-03 
-2.5733436e-02 -2.4093146e-02 4.9724127e-03 
-2.6043307e-02 -2.3906603e-02 5.8993516e-03 
-2.6438236e-02 -2.4622090e-02 5.3893984e-03 
-2.6966805e-02 -2.4818856e-02 6.0296222e-03 
-2.5816903e-02 -2.4123432e-02 5.0952644e-03 
-2.6825679e-02 -2.4946695e-02 5.5433670e-03 
-2.5781285e-02 -2.3967829e-02 5.2397042e-03 
-2.7477829e-02 -2.5313713e-02 6.1096032e-03 
-2.6150381e-02 -2.4006808e-02 5.9409086e-03 
-2.5982196e-02 -2.4192877e-02 5.3004371e-03 
-2.7361492e-02 -2.5418110e-02 5.7110721e-03 
-2.5411850e-02 -2.3336569e-02 5.7175532e-03 
-2.5497172e-02 -2.3364395e-02 5.8477358e-03 
-2.5404340e-02 -2.3444517e-02 5.4885144e-03 
-2.5289997e-02 -2.3634134e-02 4.9349931e-03 
-2.5177477e-02 -2.3549227e-02 4.9044318e-03 
-2.5263162e-02 -2.3580778e-02 5.0297049e-03 
-2.6770169e-02 -2.4585467e-02 6.1038905e-03 
-2.5526891e-02 -2.3391910e-02 5.8790124e-03 
-2.6679046e-02 -2.4650736e-02 5.8212439e-03 
-2.5259364e-02 -2.3455963e-02 5.1783277e-03 
-2.5345812e-02 -2.3547379e-02 5.2685258e-03 
-2.5998004e-02 -2.3833668e-02 5.9985006e-03 
-2.5891893e-02 -2.3917034e-02 5.6556468e-03 
-2.7236015e-02 -2.5019364e-02 6.2105022e-03 
-2.7176434e-02 -2.5065100e-02 6.0206023e-03 
-2.4940224e-02 -2.2811601e-02 5.7950122e-03 
-2.5068969e-02 -2.2935702e-02 5.8348398e-03 
-2.4852589e-02 -2.2781665e-02 5.6638108e-03 
-2.4880908e-02 -2.2927655e-02 5.4333648e-03 
-2.4765506e-02 -2.3120321e-02 4.8716702e-03 
-2.4698893e-02 -2.3027701e-02 4.9629631e-03 
-2.4872232e-02 -2.3101527e-02 5.1762168e-03 
-2.4610929e-02 -2.2994930e-02 4.8351767e-03 
-2.4733571e-02 -2.2940153e-02 5.1164581e-03 
-2.4978969e-02 -2.2823937e-02 5.9006461e-03 
-2.4865245e-02 -2.2897929e-02 5.5600000e-03 
-2.4372131e-02 -2.2247784e-02 5.7412493e-03 
-2.4123738e-02 -2.2463983e-02 4.8950231e-03 
-2.4353378e-02 -2.2406803e-02 5.3778840e-03 
-2.4236914e-02 -2.2602616e-02 4.8077740e-03 
-2.4404800e-02 -2.2280999e-02 5.7684374e-03 
-2.4282079e-02 -2.2215793e-02 5.6089838e-03 
-2.4211641e-02 -2.2431351e-02 5.1436806e-03 
-2.4033403e-02 -2.2429818e-02 4.7646607e-03 
-2.7005166e-02 -2.4628347e-02 6.5068319e-03 
-2.4203749e-02 -2.2420438e-02 5.0541684e-03 
-2.6043434e-02 -2.3675753e-02 6.4133340e-03 
-2.3927988e-02 -2.1806046e-02 5.7226387e-03 
-2.3719324e-02 -2.1967765e-02 5.0478512e-03 
-2.3792479e-02 -2.1672735e-02 5.6862519e-03 
-2.3734871e-02 -2.2103248e-02 4.7583496e-03 
-2.3821998e-02 -2.1882134e-02 5.3219623e-03 
-2.3537304e-02 -2.1889107e-02 4.8258910e-03 
-2.3699911e-02 -2.1638438e-02 5.5529196e-03 
-2.3444360e-02 -2.1853512e-02 4.6928190e-03 
-2.5077719e-02 -2.2719422e-02 6.3193534e-03 
-2.3838596e-02 -2.1694994e-02 5.7892171e-03 
-2.3669926e-02 -2.1896554e-02 4.9914620e-03 
-2.3639271e-02 -2.1683114e-02 5.4418943e-03 
-2.3236969e-02 -2.1125406e-02 5.6530149e-03 
-2.3200937e-02 -2.1085992e-02 5.6300866e-03 
-2.3286302e-02 -2.1353383e-02 5.2656862e-03 
-2.3167795e-02 -2.1555278e-02 4.6788733e-03 
-2.3033014e-02 -2.1271329e-02 5.0146864e-03 
-2.2939317e-02 -2.1302963e-02 4.7554569e-03 
-2.3105798e-02 -2.1049416e-02 5.4957136e-03 
-2.4108093e-02 -2.1759819e-02 6.2247543e-03 
-2.2843819e-02 -2.1265810e-02 4.6196412e-03 
-2.3131700e-02 -2.1368917e-02 4.9282601e-03 
-2.2740003e-02 -2.0630525e-02 5.6053661e-03 
-2.2520758e-02 -2.0788882e-02 4.9150633e-03 
-2.2746492e-02 -2.0820590e-02 5.2087917e-03 
-2.2627002e-02 -2.1025587e-02 4.6136747e-03 
-2.2597153e-02 -2.0487346e-02 5.5725621e-03 
-2.2329424e-02 -2.0704951e-02 4.6837972e-03 
-2.2627113e-02 -2.0496527e-02 5.6699272e-03 
-2.2499355e-02 -2.0448316e-02 5.4371823e-03 
-2.2493294e-02 -2.0551434e-02 5.3245625e-03 
-2.2231149e-02 -2.0666290e-02 4.5449785e-03 
-2.3134587e-02 -2.0796666e-02 6.1293598e-03 
-2.2589618e-02 -2.0836918e-02 4.8647164e-03 
-2.2093199e-02 -2.0511864e-02 4.5359940e-03 
-2.2202538e-02 -2.0283727e-02 5.1517137e-03 
-2.2020489e-02 -1.9922344e-02 5.5322959e-03 
-2.1807209e-02 -2.0064598e-02 4.8812828e-03 
-2.1980802e-02 -1.9876299e-02 5.5137658e-03 
-2.1707242e-02 -2.0094944e-02 4.6107578e-03 
-2.1880213e-02 -1.9834762e-02 5.3773993e-03 
-2.2043198e-02 -2.0300899e-02 4.8007038e-03 
-2.1606026e-02 -2.0054648e-02 4.4688215e-03 
-2.2157546e-02 -1.9830488e-02 6.0334667e-03 
-2.1502059e-02 -1.9406263e-02 5.4826094e-03 
-2.1508476e-02 -1.9942522e-02 4.4610105e-03 
-2.1654334e-02 -1.9742878e-02 5.0942148e-03 
-2.1273745e-02 -1.9562069e-02 4.7775973e-03 
-2.1414969e-02 -1.9297129e-02 5.5523338e-03 
-2.1351261e-02 -1.9252425e-02 5.4535847e-03 
-2.1278821e-02 -1.9344375e-02 5.2157305e-03 
-2.1072293e-02 -1.9472409e-02 4.5362581e-03 
-2.1492336e-02 -1.9760860e-02 4.7361916e-03 
-2.1247881e-02 -1.9208036e-02 5.3162104e-03 
-2.0968245e-02 -1.9430395e-02 4.3913163e-03 
-2.1101920e-02 -1.9197710e-02 5.0359834e-03 
-2.0915639e-02 -1.9362010e-02 4.3891063e-03 
-2.1177033e-02 -1.8861109e-02 5.9369286e-03 
-2.0752193e-02 -1.8668672e-02 5.4059010e-03 
-2.0531178e-02 -1.8808136e-02 4.7432608e-03 
-2.0708304e-02 -1.8615318e-02 5.3921021e-03 
-2.0937389e-02 -1.9216413e-02 4.6711997e-03 
-2.0424286e-02 -1.8837065e-02 4.4603874e-03 
-2.0601945e-02 -1.8568212e-02 5.2536810e-03 
-2.0317197e-02 -1.8793145e-02 4.3123141e-03 
-2.0545105e-02 -1.8648380e-02 4.9773883e-03 
-2.0341754e-02 -1.8796500e-02 4.3248385e-03 
-2.0210715e-02 -1.8130003e-02 5.3538047e-03 
-1.9974986e-02 -1.8284339e-02 4.6353810e-03 
-2.0378057e-02 -1.8667849e-02 4.6058269e-03 
-1.9974437e-02 -1.7874954e-02 5.4056309e-03 
-2.0051448e-02 -1.7964641e-02 5.3290511e-03 
-1.9842666e-02 -1.7933462e-02 5.0555426e-03 
-1.9762794e-02 -1.8188354e-02 4.3832101e-03 
-2.0191904e-02 -1.7887704e-02 5.8395467e-03 
-1.9942025e-02 -1.7914705e-02 5.1896181e-03 
-1.9652601e-02 -1.8142622e-02 4.2318096e-03 
-1.9983791e-02 -1.8094700e-02 4.9183783e-03 
-1.9858951e-02 -1.8314049e-02 4.2808922e-03 
-1.9428631e-02 -1.7361077e-02 5.2734260e-03 
-1.9814506e-02 -1.8115122e-02 4.5400350e-03 
-1.9201444e-02 -1.7498562e-02 4.6003354e-03 
-1.9380195e-02 -1.7299984e-02 5.2643949e-03 
-1.9087248e-02 -1.7525928e-02 4.3045115e-03 
-1.9418551e-02 -1.7536921e-02 4.8589348e-03 
-1.9312970e-02 -1.7772513e-02 4.2253919e-03 
-1.9267617e-02 -1.7247016e-02 5.1238579e-03 
-1.9203633e-02 -1.6911590e-02 5.7413252e-03 
-1.8973721e-02 -1.7478202e-02 4.1497820e-03 
-1.8862585e-02 -1.6798275e-02 5.2187424e-03 
-1.9247046e-02 -1.7558210e-02 4.4739000e-03 
-1.8621163e-02 -1.6952129e-02 4.4879331e-03 
-1.8894283e-02 -1.7094562e-02 4.6884492e-03 
-1.8705664e-02 -1.6622283e-02 5.2776188e-03 
-1.8572455e-02 -1.6680725e-02 4.9238135e-03 
-1.8694097e-02 -1.6620910e-02 5.1980452e-03 
-1.8397348e-02 -1.6849451e-02 4.2243623e-03 
-1.8849222e-02 -1.6975416e-02 4.7991374e-03 
-1.8722333e-02 -1.7200576e-02 4.1448171e-03 
-1.8578438e-02 -1.6564539e-02 5.0567831e-03 
-1.8280130e-02 -1.6799498e-02 4.0658666e-03 
-1.8674774e-02 -1.6996937e-02 4.4072047e-03 
-1.8212195e-02 -1.5932769e-02 5.6423433e-03 
-1.8046089e-02 -1.5996050e-02 5.1343055e-03 
-1.7814761e-02 -1.6132783e-02 4.4523277e-03 
-1.8140065e-02 -1.6640369e-02 4.0608002e-03 
-1.8274629e-02 -1.6408792e-02 4.7387918e-03 
-1.7992718e-02 -1.5926717e-02 5.1300200e-03 
-1.7692566e-02 -1.6158303e-02 4.1425591e-03 
-1.8097581e-02 -1.6431246e-02 4.3399199e-03 
-1.7873842e-02 -1.5867261e-02 4.9878475e-03 
-1.7572243e-02 -1.6106630e-02 3.9806501e-03 
-1.7454077e-02 -1.5407616e-02 5.0768484e-03 
-1.7373474e-02 -1.5301366e-02 5.1575606e-03 
-1.7208794e-02 -1.5562018e-02 4.3348945e-03 
-1.7230617e-02 -1.5329256e-02 4.8402431e-03 
-1.7695783e-02 -1.5838033e-02 4.6775411e-03 
-1.7566692e-02 -1.6068527e-02 4.0068170e-03 
-1.7217863e-02 -1.4951496e-02 5.5426252e-03 
-1.7275674e-02 -1.5217472e-02 5.0599673e-03 
-1.6972814e-02 -1.5452204e-02 4.0595685e-03 
-1.7516410e-02 -1.5861338e-02 4.2721778e-03 
-1.7153494e-02 -1.5154809e-02 4.9171476e-03 
-1.6848996e-02 -1.5398699e-02 3.8937829e-03 
-1.7112525e-02 -1.5263012e-02 4.6160491e-03 
-1.6982537e-02 -1.5496587e-02 3.9368966e-03 
-1.6601048e-02 -1.4570197e-02 4.9876682e-03 
-1.6368065e-02 -1.4707400e-02 4.2992551e-03 
-1.6931094e-02 -1.5286921e-02 4.2043705e-03 
-1.6542457e-02 -1.4492682e-02 4.9881311e-03 
-1.6237387e-02 -1.4731025e-02 3.9746920e-03 
-1.6218975e-02 -1.3966274e-02 5.4417290e-03 
-1.6417058e-02 -1.4426406e-02 4.8448858e-03 
-1.6524971e-02 -1.4683714e-02 4.5546573e-03 
-1.6393524e-02 -1.4919972e-02 3.8668718e-03 
-1.6109589e-02 -1.4675410e-02 3.8046769e-03 
-1.5904112e-02 -1.3849564e-02 5.0139041e-03 
-1.5981464e-02 -1.3955169e-02 4.9268608e-03 
-1.5763260e-02 -1.3873210e-02 4.7072270e-03 
-1.5735194e-02 -1.4111532e-02 4.1768765e-03 
-1.6340531e-02 -1.4708435e-02 4.1358583e-03 
-1.5792726e-02 -1.3751170e-02 4.9145846e-03 
-1.5485734e-02 -1.3994032e-02 3.8881451e-03 
-1.5932372e-02 -1.4099664e-02 4.4922042e-03 
-1.5800375e-02 -1.4338746e-02 3.7962112e-03 
-1.5663393e-02 -1.3681612e-02 4.7700251e-03 
-1.5354482e-02 -1.3935784e-02 3.7144059e-03 
-1.5218284e-02 -1.2979809e-02 5.3397655e-03 
-1.5745932e-02 -1.4124503e-02 4.0672193e-03 
-1.5090034e-02 -1.3080255e-02 4.8335912e-03 
-1.4857420e-02 -1.3219142e-02 4.1401577e-03 
-1.5335768e-02 -1.3511700e-02 4.4293851e-03 
-1.5202140e-02 -1.3752771e-02 3.7254228e-03 
-1.5025468e-02 -1.2993786e-02 4.8382692e-03 
-1.4717732e-02 -1.3240498e-02 3.8004424e-03 
-1.5146299e-02 -1.3537210e-02 3.9975005e-03 
-1.4893019e-02 -1.2919962e-02 4.6939617e-03 
-1.4582483e-02 -1.3180731e-02 3.6220062e-03 
-1.4367369e-02 -1.2331408e-02 4.8634894e-03 
-1.4230961e-02 -1.2352331e-02 4.5695379e-03 
-1.4308070e-02 -1.2309983e-02 4.7525303e-03 
-1.4215206e-02 -1.1991037e-02 5.2372445e-03 
-1.4734008e-02 -1.2918808e-02 4.3655513e-03 
-1.4599983e-02 -1.3163041e-02 3.6540087e-03 
-1.4077199e-02 -1.2450171e-02 4.0589278e-03 
-1.4241145e-02 -1.2218589e-02 4.7606728e-03 
-1.3932601e-02 -1.2470785e-02 3.7103901e-03 
-1.4543124e-02 -1.2945161e-02 3.9280970e-03 
-1.4104977e-02 -1.2141649e-02 4.6154037e-03 
-1.3793542e-02 -1.2408621e-02 3.5277361e-03 
-1.4128665e-02 -1.2322310e-02 4.3019308e-03 
-1.3993101e-02 -1.2568840e-02 3.5825807e-03 
-1.3508730e-02 -1.1522415e-02 4.6699061e-03 
-1.3678785e-02 -1.2114289e-02 3.8462223e-03 
-1.3280015e-02 -1.1664235e-02 3.9758417e-03 
-1.3935273e-02 -1.2349967e-02 3.8576722e-03 
-1.3207981e-02 -1.0998878e-02 5.1331329e-03 
-1.3145986e-02 -1.1133668e-02 4.7249198e-03 
-1.3438262e-02 -1.1426480e-02 4.6796128e-03 
-1.3026892e-02 -1.1192802e-02 4.3924940e-03 
-1.3130291e-02 -1.1683524e-02 3.6190283e-03 
-1.3518913e-02 -1.1721629e-02 4.2373114e-03 
-1.3382569e-02 -1.1971422e-02 3.5103278e-03 
-1.3298602e-02 -1.1345528e-02 4.5339791e-03 
-1.2986976e-02 -1.1619233e-02 3.4325847e-03 
-1.3323449e-02 -1.1749827e-02 3.7875841e-03 
-1.2690606e-02 -1.0716916e-02 4.5848917e-03 
-1.2464623e-02 -1.0861373e-02 3.8914776e-03 
-1.2617319e-02 -1.0616391e-02 4.5967884e-03 
-1.2904377e-02 -1.1116415e-02 4.1726651e-03 
-1.2766648e-02 -1.1368499e-02 3.4377049e-03 
-1.2310185e-02 -1.0879464e-02 3.5258802e-03 
-1.2200510e-02 -1.0006391e-02 5.0286944e-03 
-1.2474368e-02 -1.0531466e-02 4.4513415e-03 
-1.2706491e-02 -1.1144775e-02 3.7168171e-03 
-1.1845113e-02 -9.9571664e-03 4.4098394e-03 
-1.1907131e-02 -9.8834941e-03 4.6626790e-03 
-1.2163048e-02 -1.0813254e-02 3.3344766e-03 
-1.1853760e-02 -9.8930169e-03 4.4977539e-03 
-1.1630895e-02 -1.0039473e-02 3.8053503e-03 
-1.2284965e-02 -1.0506716e-02 4.1074441e-03 
-1.2146379e-02 -1.0760945e-02 3.3647085e-03 
-1.1777318e-02 -9.7878492e-03 4.5113768e-03 
-1.1471692e-02 -1.0057109e-02 3.4311491e-03 
-1.2084788e-02 -1.0534851e-02 3.6455756e-03 
-1.1191140e-02 -9.0134935e-03 4.9223248e-03 
-1.1630454e-02 -9.6986955e-03 4.3662325e-03 
-1.1320427e-02 -9.9889673e-03 3.2342314e-03 
-1.1661991e-02 -9.8934835e-03 4.0412131e-03 
-1.1522187e-02 -1.0149268e-02 3.2917671e-03 
-1.0834190e-02 -8.9623844e-03 4.3031564e-03 
-1.0896317e-02 -8.8882186e-03 4.5574643e-03 
-1.0987060e-02 -9.0399859e-03 4.4060713e-03 
-1.0762057e-02 -9.1860099e-03 3.7105335e-03 
-1.1163049e-02 -9.5781432e-03 3.6836078e-03 
-1.1459327e-02 -9.9226329e-03 3.5732978e-03 
-1.0930658e-02 -8.9531997e-03 4.4242069e-03 
-1.0633679e-02 -9.2386082e-03 3.3296752e-03 
-1.1042185e-02 -9.2867604e-03 3.9688144e-03 
-1.0903891e-02 -9.5427036e-03 3.2209738e-03 
-1.0781726e-02 -8.8626677e-03 4.2788256e-03 
-1.0180012e-02 -8.0186268e-03 4.8151477e-03 
-1.0482894e-02 -9.1694137e-03 3.1360600e-03 
-1.0840754e-02 -9.3153575e-03 3.5029100e-03 
-1.0128971e-02 -8.1953928e-03 4.3146093e-03 
-9.9244164e-03 -8.3747786e-03 3.5972001e-03 
-9.8238532e-03 -7.9675978e-03 4.1985735e-03 
-9.8859575e-03 -7.8935763e-03 4.4524991e-03 
-1.0343816e-02 -8.7756813e-03 3.5885749e-03 
-1.0428501e-02 -8.6866831e-03 3.8974963e-03 
-1.0098482e-02 -8.1333276e-03 4.3374505e-03 
-1.0290309e-02 -8.9408178e-03 3.1512643e-03 
-9.8101292e-03 -8.4370170e-03 3.2267347e-03 
-1.0227614e-02 -8.7151714e-03 3.4323372e-03 
-9.9513866e-03 -8.0450457e-03 4.1925642e-03 
-9.6625509e-03 -8.3664935e-03 3.0407752e-03 
-9.1737844e-03 -7.0299376e-03 4.7069737e-03 
-9.3154442e-03 -7.3940135e-03 4.2292438e-03 
-9.1149025e-03 -7.5914734e-03 3.4855390e-03 
-9.8209027e-03 -8.0919638e-03 3.8262845e-03 
-9.6835559e-03 -8.3458861e-03 3.0824505e-03 
-8.9848489e-03 -7.0400327e-03 4.2865165e-03 
-8.8897375e-03 -7.1275537e-03 3.9467141e-03 
-9.2841126e-03 -7.3326151e-03 4.2519183e-03 
-9.0024108e-03 -7.6501640e-03 3.1263013e-03 
-9.3314312e-03 -7.7849962e-03 3.4711098e-03 
-9.6212653e-03 -8.1213461e-03 3.3629858e-03 
-8.8586975e-03 -7.5803688e-03 2.9474848e-03 
-9.1386875e-03 -7.2458442e-03 4.1076043e-03 
-9.2197377e-03 -7.5041638e-03 3.7554293e-03 
-9.0835970e-03 -7.7576390e-03 3.0150830e-03 
-8.3204145e-03 -6.8243262e-03 3.3766378e-03 
-8.5178604e-03 -6.6097486e-03 4.1453717e-03 
-8.1751412e-03 -6.0503064e-03 4.5999950e-03 
-9.0222163e-03 -7.5341547e-03 3.2950598e-03 
-8.2114395e-03 -6.8793166e-03 3.0284917e-03 
-8.4864348e-03 -6.5488280e-03 4.1678487e-03 
-7.8853881e-03 -5.9270896e-03 4.2419848e-03 
-7.8191608e-03 -6.0641984e-03 3.8542957e-03 
-8.6258454e-03 -6.9237775e-03 3.6861536e-03 
-8.4897187e-03 -7.1730977e-03 2.9526008e-03 
-8.0702081e-03 -6.8094558e-03 2.8547030e-03 
-8.3440840e-03 -6.4632935e-03 4.0258379e-03 
-8.1275608e-03 -6.5963212e-03 3.3487715e-03 
-8.4284851e-03 -6.9535733e-03 3.2268793e-03 
-7.5417655e-03 -6.0705962e-03 3.2701455e-03 
-7.5040637e-03 -5.6215860e-03 4.0329574e-03 
-7.4352222e-03 -6.1234753e-03 2.9338831e-03 
-7.7063818e-03 -5.7820426e-03 4.0848115e-03 
-8.0366693e-03 -6.3480600e-03 3.6165249e-03 
-7.1856463e-03 -5.0806445e-03 4.4935620e-03 
-7.9013612e-03 -6.6001574e-03 2.8815931e-03 
-7.5294292e-03 -6.0258675e-03 3.2678379e-03 
-6.9175470e-03 -5.1817345e-03 3.7557003e-03 
-7.8411512e-03 -6.3790036e-03 3.1600108e-03 
-7.2974437e-03 -6.0542929e-03 2.7672115e-03 
-7.5664469e-03 -5.6987321e-03 3.9430568e-03 
-6.8969261e-03 -4.9581975e-03 4.1370112e-03 
-6.7791566e-03 -5.3342483e-03 3.1660507e-03 
-6.9747251e-03 -5.0929352e-03 3.9798222e-03 
-7.4540321e-03 -5.7792962e-03 3.5482990e-03 
-7.3193996e-03 -6.0303998e-03 2.8157555e-03 
-6.6750366e-03 -5.3840429e-03 2.8405599e-03 
-6.9428496e-03 -5.0326842e-03 4.0029152e-03 
-6.9236844e-03 -5.4858867e-03 3.0880563e-03 
-7.2592841e-03 -5.8101066e-03 3.0935258e-03 
-6.2008314e-03 -4.1154558e-03 4.3843938e-03 
-6.5402547e-03 -5.3155925e-03 2.6791478e-03 
-6.8050139e-03 -4.9507669e-03 3.8634252e-03 
-6.0849031e-03 -4.4248202e-03 3.5485220e-03 
-6.1759697e-03 -4.3047378e-03 3.9384379e-03 
-6.8765171e-03 -5.2167866e-03 3.4803839e-03 
-6.0309754e-03 -4.6103639e-03 3.0645924e-03 
-6.6158916e-03 -5.3580729e-03 2.7125210e-03 
-6.2260898e-03 -4.3579047e-03 3.8998425e-03 
-6.6831005e-03 -5.2465885e-03 3.0287644e-03 
-5.9291860e-03 -4.6578706e-03 2.7481492e-03 
-6.1953957e-03 -4.2987876e-03 3.9225938e-03 
-6.1731399e-03 -4.9081352e-03 2.6873169e-03 
-6.3118050e-03 -4.6860394e-03 3.3709442e-03 
-5.7976744e-03 -4.5904992e-03 2.5931555e-03 
-6.0578878e-03 -4.2181434e-03 3.7845927e-03 
-5.2226745e-03 -3.1569181e-03 4.2760880e-03 
-5.8548017e-03 -4.3304851e-03 3.1741338e-03 
-5.2972604e-03 -3.9022402e-03 2.9657304e-03 
-5.4930551e-03 -3.6376107e-03 3.8213299e-03 
-6.1135772e-03 -4.6887216e-03 2.9649460e-03 
-5.1985988e-03 -3.9475793e-03 2.6603218e-03 
-4.9393144e-03 -3.0395882e-03 3.9235470e-03 
-4.8782029e-03 -3.1104619e-03 3.6776769e-03 
-5.6128376e-03 -4.3772743e-03 2.5985416e-03 
-5.4619056e-03 -3.5780435e-03 3.8426640e-03 
-5.7708663e-03 -4.1106311e-03 3.4039877e-03 
-4.9028350e-03 -3.3596768e-03 3.2359264e-03 
-4.9714879e-03 -3.1399827e-03 3.7673940e-03 
-5.0700540e-03 -3.8794265e-03 2.5098913e-03 
-5.3276354e-03 -3.5023899e-03 3.7034014e-03 
-5.5497391e-03 -4.1368473e-03 2.9017755e-03 
-4.5777839e-03 -3.2059220e-03 2.8701017e-03 
-4.7759595e-03 -2.9330740e-03 3.7445873e-03 
-4.2557316e-03 -2.2133207e-03 4.1651120e-03 
-4.9603167e-03 -3.7445163e-03 2.5177000e-03 
-5.1502204e-03 -3.5003191e-03 3.3403221e-03 
-4.4821561e-03 -3.2493765e-03 2.5740557e-03 
-4.7449023e-03 -2.8765909e-03 3.7646098e-03 
-4.9919859e-03 -3.5918530e-03 2.8384526e-03 
-3.9760163e-03 -2.0978949e-03 3.8164845e-03 
-3.9151260e-03 -2.1678328e-03 3.5729595e-03 
-4.3573393e-03 -3.1825495e-03 2.4268187e-03 
-4.6121622e-03 -2.8016542e-03 3.6267843e-03 
-3.8737261e-03 -2.5248618e-03 2.7758202e-03 
-4.5598657e-03 -2.9286896e-03 3.2603829e-03 
-4.0561142e-03 -2.2204476e-03 3.6733439e-03 
-3.6101644e-03 -2.1051145e-03 3.0711328e-03 
-4.2581456e-03 -3.0569476e-03 2.4378372e-03 
-3.7805790e-03 -2.5655907e-03 2.4891635e-03 
-4.0425262e-03 -2.1891175e-03 3.6857980e-03 
-4.4400860e-03 -3.0520060e-03 2.7763667e-03 
-3.2983886e-03 -1.2790705e-03 4.0538530e-03 
-3.9190855e-03 -2.4497439e-03 2.9289252e-03 
-3.6573326e-03 -2.4998572e-03 2.3477410e-03 
-3.3343844e-03 -1.5390905e-03 3.5865137e-03 
-4.1000168e-03 -2.5239207e-03 3.1199288e-03 
-3.9128107e-03 -2.1156056e-03 3.5500408e-03 
-3.9518825e-03 -2.7319875e-03 2.4409471e-03 
-3.1824794e-03 -1.8568335e-03 2.6841634e-03 
-3.0214975e-03 -1.1635385e-03 3.7096248e-03 
-2.9610666e-03 -1.2326710e-03 3.4682374e-03 
-3.3862570e-03 -1.5708525e-03 3.5927389e-03 
-3.5370460e-03 -2.3640201e-03 2.3422623e-03 
-3.8944900e-03 -2.5179144e-03 2.7153783e-03 
-3.0914308e-03 -1.8955341e-03 2.4054232e-03 
-3.3551473e-03 -1.5157878e-03 3.6090477e-03 
-3.5018825e-03 -2.2891066e-03 2.3958902e-03 
-3.5386616e-03 -1.9608047e-03 3.0851315e-03 
-2.9718156e-03 -1.8295448e-03 2.2690438e-03 
-3.2269068e-03 -1.4435798e-03 3.4759501e-03 
-2.3494153e-03 -3.5218173e-04 3.9434927e-03 
-2.5052123e-03 -1.2012728e-03 2.5947390e-03 
-3.3538612e-03 -1.9897206e-03 2.6542232e-03 
-2.6942934e-03 -8.8695122e-04 3.5227255e-03 