# vtk DataFile Version 4.0
vtk output
ASCII
DATASET UNSTRUCTURED_GRID
POINTS 4496 float
-4.3633327e-01 9.6409470e-01 4.4200001e+01 
-4.3633258e-01 9.6409065e-01 4.4074627e+01 
-3.2152572e-01 9.1279918e-01 4.4200001e+01 
-3.8534868e-01 8.4052670e-01 4.4200001e+01 
-3.9589554e-01 8.5545403e-01 4.4010014e+01 
-3.2616228e-01 9.1667932e-01 4.4011734e+01 
-4.3633190e-01 9.6408653e-01 4.3948376e+01 
-2.1293370e-01 8.4677851e-01 4.4200001e+01 
-2.9042658e-01 7.3813015e-01 4.4200001e+01 
-2.1010752e-01 8.4669363e-01 4.4073502e+01 
-2.8908840e-01 7.3604190e-01 4.4072292e+01 
-3.9589015e-01 8.5505831e-01 4.3883316e+01 
-3.2487559e-01 9.1697580e-01 4.3885036e+01 
-2.0722924e-01 8.4660655e-01 4.3944645e+01 
-1.1981077e-01 7.7773046e-01 4.4200001e+01 
-2.8772619e-01 7.3391593e-01 4.3942276e+01 
-4.3633121e-01 9.6408242e-01 4.3821228e+01 
-1.9739023e-01 6.6468561e-01 4.4200001e+01 
-2.9444304e-01 7.8727525e-01 4.3879974e+01 
-8.7554991e-02 7.5255024e-01 4.4042213e+01 
-1.6445170e-01 6.4084798e-01 4.4041008e+01 
-3.2357255e-01 9.1726828e-01 4.3757431e+01 
-3.9587301e-01 8.5463828e-01 4.3755711e+01 
-2.0429766e-01 8.4651643e-01 4.3813354e+01 
-2.8633916e-01 7.3175091e-01 4.3809875e+01 
-2.6899619e-02 6.8901783e-01 4.4200001e+01 
-1.0567340e-01 7.7152997e-01 4.3875790e+01 
-4.3633053e-01 9.6407831e-01 4.3693161e+01 
-8.7133333e-02 5.9509218e-01 4.4200001e+01 
-1.8777622e-01 6.5475601e-01 4.3873402e+01 
-2.0131156e-01 8.4642249e-01 4.3679543e+01 
-3.2225290e-01 9.1755641e-01 4.3628902e+01 
-3.9584404e-01 8.5419410e-01 4.3627178e+01 
-1.0114321e-03 6.6670936e-01 4.3939713e+01 
-2.8492665e-01 7.2954547e-01 4.3675007e+01 
-1.0131179e-01 7.7015632e-01 4.3743176e+01 
-6.0682178e-02 5.7631296e-01 4.3938457e+01 
3.9444737e-02 6.2338209e-01 4.4053139e+01 
-1.8470748e-01 6.5131217e-01 4.3739727e+01 
-7.0938184e-03 5.4737431e-01 4.4052326e+01 
-4.3632981e-01 9.6407413e-01 4.3564159e+01 
7.6947339e-02 5.8804804e-01 4.4200001e+01 
-1.2721874e-02 6.8194175e-01 4.3817982e+01 
-7.7214435e-02 5.8474159e-01 4.3819649e+01 
4.0195532e-02 5.2425718e-01 4.4200001e+01 
-1.9826968e-01 8.4632379e-01 4.3543118e+01 
-9.6842363e-02 7.6872379e-01 4.3607994e+01 
-3.2091641e-01 9.1783977e-01 4.3499420e+01 
-3.9580306e-01 8.5372573e-01 4.3497700e+01 
-2.8348783e-01 7.2729832e-01 4.3537586e+01 
-1.8155001e-01 6.4778340e-01 4.3603539e+01 
1.5678726e-01 5.2239102e-01 4.4060219e+01 
1.0298219e-02 6.6009766e-01 4.3674484e+01 
1.3250886e-01 4.7546524e-01 4.4058990e+01 
-4.3632913e-01 9.6407002e-01 4.3434200e+01 
-5.0139543e-02 5.6696451e-01 4.3671154e+01 
1.3504514e-01 5.4209155e-01 4.3856747e+01 
1.0361936e-01 4.8715758e-01 4.3855240e+01 
2.0846681e-01 4.8028421e-01 4.4200001e+01 
1.9279444e-01 4.4799727e-01 4.4200001e+01 
-9.2261828e-02 7.6722860e-01 4.3470158e+01 
-1.4701239e-03 6.7547697e-01 4.3552124e+01 
-1.9517080e-01 8.4621930e-01 4.3403992e+01 
-3.1956279e-01 9.1811794e-01 4.3368977e+01 
-3.9574999e-01 8.5323322e-01 4.3367252e+01 
-1.7830023e-01 6.4416617e-01 4.3464752e+01 
-6.7131944e-02 5.7555372e-01 4.3547829e+01 
-2.8202194e-01 7.2500783e-01 4.3397518e+01 
-4.3632844e-01 9.6406585e-01 4.3303261e+01 
1.5138821e-01 5.3037512e-01 4.3609200e+01 
1.2119007e-01 4.7490793e-01 4.3606068e+01 
-8.7566733e-02 7.6566672e-01 4.3329563e+01 
-1.7495437e-01 6.4045686e-01 4.3323273e+01 
-3.1819177e-01 9.1839045e-01 4.3237537e+01 
-3.9568463e-01 8.5271639e-01 4.3235813e+01 
2.2269404e-02 6.5294570e-01 4.3398811e+01 
-1.9201367e-01 8.4610778e-01 4.3262066e+01 
-3.8899176e-02 5.5709696e-01 4.3393635e+01 
-2.8052819e-01 7.2267252e-01 4.3254715e+01 
3.7877345e-01 3.8273901e-01 4.4200001e+01 
-4.3632776e-01 9.6406174e-01 4.3171322e+01 
3.9241230e-01 3.7329337e-01 4.3965439e+01 
1.0283732e-02 6.6872352e-01 4.3271511e+01 
-5.6385640e-02 5.6585240e-01 4.3265472e+01 
-8.2753494e-02 7.6403379e-01 4.3186119e+01 
-4.0345609e-01 8.6371827e-01 4.3104889e+01 
-3.1680310e-01 9.1865683e-01 4.3105087e+01 
-1.7150842e-01 6.3665158e-01 4.3179005e+01 
-1.8879703e-01 8.4598809e-01 4.3117241e+01 
-2.7900568e-01 7.2029078e-01 4.3109074e+01 
4.0610775e-01 3.6380205e-01 4.3729839e+01 
1.6776134e-01 5.1882964e-01 4.3331150e+01 
-4.3632707e-01 9.6405768e-01 4.3038357e+01 
1.4031014e-01 4.6124566e-01 4.3307755e+01 
3.4952711e-02 6.4519531e-01 4.3111935e+01 
-7.7818394e-02 7.6232505e-01 4.3039719e+01 
-3.1539652e-01 9.1891652e-01 4.2971603e+01 
-3.9551663e-01 8.5160977e-01 4.2969879e+01 
-2.6899155e-02 5.4666573e-01 4.3105160e+01 
-1.6795819e-01 6.3274628e-01 4.3031849e+01 
-1.8551964e-01 8.4585863e-01 4.2969406e+01 
4.1985780e-01 3.5425979e-01 4.3493168e+01 
-2.7745360e-01 7.1786088e-01 4.2960495e+01 
-4.3632638e-01 9.6405357e-01 4.2904346e+01 
2.2723136e-02 6.6139150e-01 4.2979332e+01 
-4.4916678e-02 5.5559248e-01 4.2971806e+01 
-3.1397179e-01 9.1916907e-01 4.2837063e+01 
-3.9541367e-01 8.5101974e-01 4.2835335e+01 
-7.2757579e-02 7.6053542e-01 4.2890255e+01 
-1.6429928e-01 6.2873662e-01 4.2881699e+01 
1.8463810e-01 5.0694346e-01 4.3035332e+01 
-1.8218029e-01 8.4571803e-01 4.2818455e+01 
1.5503895e-01 4.5003417e-01 4.3027725e+01 
-2.7587104e-01 7.1538109e-01 4.2808868e+01 
4.3366045e-01 3.4466109e-01 4.3255390e+01 
-4.3632573e-01 9.6404958e-01 4.2769268e+01 
-3.8429454e-01 8.3484912e-01 4.2710606e+01 
-3.1252861e-01 9.1941386e-01 4.2701439e+01 
4.8404284e-02 6.3678014e-01 4.2813030e+01 
-1.4070326e-02 5.3562075e-01 4.2804932e+01 
-6.7567028e-02 7.5865942e-01 4.2737610e+01 
-1.6052702e-01 6.2461799e-01 4.2728443e+01 
-1.7877772e-01 8.4556442e-01 4.2664265e+01 
-4.3632504e-01 9.6404558e-01 4.2633099e+01 
-2.7425703e-01 7.1284944e-01 4.2654083e+01 
4.4751364e-01 3.3500037e-01 4.3016472e+01 
3.5901129e-02 6.5341437e-01 4.2674721e+01 
-3.7959340e-01 8.2794034e-01 4.2568317e+01 
-3.1106678e-01 9.1965032e-01 4.2564713e+01 
-3.2659348e-02 5.4472327e-01 4.2665997e+01 
2.0396979e-01 4.9291667e-01 4.2740131e+01 
-6.2242586e-02 7.5669110e-01 4.2581669e+01 
1.7765003e-01 4.3475360e-01 4.2732578e+01 
-1.5663649e-01 6.2038553e-01 4.2571964e+01 
-4.3632439e-01 9.6404165e-01 4.2495808e+01 
-1.7531081e-01 8.4539592e-01 4.2506718e+01 
-2.7261066e-01 7.1026409e-01 4.2496017e+01 
-3.0958602e-01 9.1987789e-01 4.2426853e+01 
-3.7859210e-01 8.2613736e-01 4.2421188e+01 
4.6141517e-01 3.2527190e-01 4.2776375e+01 
6.2686495e-02 6.2762415e-01 4.2501175e+01 
-3.3570320e-04 5.2390522e-01 4.2492062e+01 
-5.6779940e-02 7.5462401e-01 4.2422298e+01 
-4.3632373e-01 9.6403772e-01 4.2357380e+01 
-1.5262254e-01 6.1603409e-01 4.2412144e+01 
-1.7177837e-01 8.4521037e-01 4.2345684e+01 
-2.7093092e-01 7.0762289e-01 4.2334549e+01 
-3.0808610e-01 9.2009580e-01 4.2287842e+01 
-3.8275370e-01 8.3137155e-01 4.2275047e+01 
4.9876589e-02 6.4471585e-01 4.2356720e+01 
-1.9539909e-02 5.3318781e-01 4.2347118e+01 
-4.3632311e-01 9.6403396e-01 4.2217781e+01 
2.1959943e-01 4.8236796e-01 4.2385345e+01 
-5.1174615e-02 7.5245124e-01 4.2259373e+01 
1.9034323e-01 4.2346162e-01 4.2378918e+01 
-1.4847966e-01 6.1155808e-01 4.2248856e+01 
4.7536272e-01 3.1546980e-01 4.2535065e+01 
-1.6817927e-01 8.4500539e-01 4.2181026e+01 
-2.6921678e-01 7.0492369e-01 4.2169544e+01 
-3.0656675e-01 9.2030340e-01 4.2147648e+01 
-3.9470181e-01 8.4769493e-01 4.2145920e+01 
7.7868804e-02 6.1763972e-01 4.2175373e+01 
-4.3632248e-01 9.6403021e-01 4.2076988e+01 
1.4390758e-02 5.1145434e-01 4.2165581e+01 
-4.5421973e-02 7.5016522e-01 4.2092751e+01 
-1.4420210e-01 6.0695171e-01 4.2081959e+01 
-3.0502778e-01 9.2049998e-01 4.2006248e+01 
-4.0175444e-01 8.5747409e-01 4.2004128e+01 
-1.6451253e-01 8.4477836e-01 4.2012604e+01 
4.8935395e-01 3.0558801e-01 4.2292507e+01 
-2.6746723e-01 7.0216429e-01 4.2000870e+01 
6.4714879e-02 6.3520777e-01 4.2024277e+01 
-4.3632188e-01 9.6402657e-01 4.1934975e+01 
-5.4755262e-03 5.2092212e-01 4.2014156e+01 
-2.3078828e-01 8.1064087e-01 4.1931458e+01 
2.3550548e-01 4.7116494e-01 4.2073269e+01 
2.0610523e-01 4.1123796e-01 4.2066772e+01 
-3.9517213e-02 7.4775779e-01 4.1922287e+01 
-1.3978374e-01 6.0220873e-01 4.1911320e+01 
-3.0346894e-01 9.2068475e-01 4.1863613e+01 
-3.9432141e-01 8.4618556e-01 4.1861881e+01 
-1.6077711e-01 8.4452641e-01 4.1840263e+01 
-2.6568118e-01 6.9934219e-01 4.1828377e+01 
-4.3632129e-01 9.6402299e-01 4.1791718e+01 
5.0338638e-01 2.9562023e-01 4.2048656e+01 
9.4028555e-02 6.0672593e-01 4.1834507e+01 
3.0205652e-02 4.9819478e-01 4.1824417e+01 
-3.8116732e-01 8.2744831e-01 4.1725647e+01 
-3.0189002e-01 9.2085695e-01 4.1719719e+01 
-3.3455357e-02 7.4522001e-01 4.1747829e+01 
-1.3521814e-01 5.9732240e-01 4.1736786e+01 
-4.3632072e-01 9.6401960e-01 4.1647179e+01 
-1.5697217e-01 8.4424627e-01 4.1663853e+01 
-2.6385748e-01 6.9645494e-01 4.1651920e+01 
8.0488607e-02 6.2478805e-01 4.1676235e+01 
2.6870471e-01 4.4547972e-01 4.1752304e+01 
9.6269641e-03 5.0785345e-01 4.1665993e+01 
2.4764967e-01 3.8646612e-01 4.1743168e+01 
-3.0029076e-01 9.2101562e-01 4.1574532e+01 
-3.9388368e-01 8.4456980e-01 4.1572796e+01 
5.1745731e-01 2.8556010e-01 4.1803486e+01 
-2.7231261e-02 7.4254233e-01 4.1569210e+01 
-1.3049847e-01 5.9228569e-01 4.1558201e+01 
-4.3632016e-01 9.6401632e-01 4.1501339e+01 
-1.5309690e-01 8.4393430e-01 4.1483204e+01 
-2.6199502e-01 6.9349992e-01 4.1471333e+01 
-2.9867104e-01 9.2115986e-01 4.1428024e+01 
-3.9364263e-01 8.4372103e-01 4.1426289e+01 
1.1125199e-01 5.9476525e-01 4.1477348e+01 
4.7217656e-02 4.8404291e-01 4.1467384e+01 
-4.3631962e-01 9.6401310e-01 4.1354160e+01 
-2.0839609e-02 7.3971421e-01 4.1386261e+01 
-1.2561750e-01 5.8709091e-01 4.1375404e+01 
5.3156406e-01 2.7540097e-01 4.1556946e+01 
-1.4915068e-01 8.4358656e-01 4.1298138e+01 
-2.9703063e-01 9.2128879e-01 4.1280167e+01 
-3.9338648e-01 8.4284443e-01 4.1278431e+01 
-2.6009262e-01 6.9047421e-01 4.1286449e+01 
2.9365057e-01 4.2687622e-01 4.1391586e+01 
9.7278498e-02 6.1333776e-01 4.1311302e+01 
2.7470219e-01 3.6807936e-01 4.1382729e+01 
2.5872495e-02 4.9389899e-01 4.1301384e+01 
-4.3631911e-01 9.6401012e-01 4.1205620e+01 
-1.4274905e-02 7.3672432e-01 4.1198803e+01 
-1.2056758e-01 5.8173001e-01 4.1188221e+01 
-2.9536936e-01 9.2140132e-01 4.1130928e+01 
[...]
POINT_DATA 4496
FIELD FieldData 1
DISPLACEMENT 3 4496  float
4.9074814e-03 3.2645851e-02 1.6758187e-02 
4.4142581e-03 3.1595424e-02 1.6349575e-02 
5.6529148e-03 3.4177359e-02 1.6420793e-02 
6.3261529e-03 3.3165392e-02 1.7262518e-02 
5.3998805e-03 3.1449247e-02 1.6607884e-02 
4.8625716e-03 3.2540929e-02 1.5809095e-02 
3.9178617e-03 3.0538075e-02 1.5937975e-02 
6.5469737e-03 3.5598375e-02 1.6214976e-02 
7.5900792e-03 3.4336254e-02 1.7372835e-02 
6.0546878e-03 3.4577858e-02 1.5786827e-02 
7.1121049e-03 3.3281524e-02 1.6962431e-02 
4.9059023e-03 3.0387606e-02 1.6197311e-02 
4.3633864e-03 3.1498194e-02 1.5386617e-02 
5.5534570e-03 3.3538152e-02 1.5350806e-02 
7.4479133e-03 3.6797278e-02 1.6119028e-02 
6.6254605e-03 3.2207999e-02 1.6544331e-02 
3.4183203e-03 2.9473662e-02 1.5523376e-02 
8.5384939e-03 3.5527013e-02 1.7306151e-02 
5.7934583e-03 3.1676717e-02 1.6034091e-02 
7.1523287e-03 3.5887875e-02 1.5579940e-02 
8.2245870e-03 3.4619160e-02 1.6750501e-02 
3.8614159e-03 3.0448778e-02 1.4961511e-02 
4.4088732e-03 2.9319156e-02 1.5783451e-02 
5.0431215e-03 3.2479174e-02 1.4906602e-02 
6.1300332e-03 3.1115085e-02 1.6118461e-02 
8.5609192e-03 3.7962243e-02 1.6151862e-02 
6.2622889e-03 3.4268197e-02 1.5020628e-02 
2.9163747e-03 2.8402478e-02 1.5105775e-02 
9.4744554e-03 3.6966246e-02 1.7114010e-02 
7.3752021e-03 3.2908887e-02 1.6250115e-02 
4.5237402e-03 3.1400446e-02 1.4454036e-02 
3.3566025e-03 2.9392449e-02 1.4533148e-02 
3.9094756e-03 2.8244374e-02 1.5366131e-02 
7.8196228e-03 3.6107522e-02 1.5297621e-02 
5.6256372e-03 3.0002670e-02 1.5684262e-02 
5.7629077e-03 3.3215795e-02 1.4572366e-02 
8.6903693e-03 3.5114806e-02 1.6229603e-02 
8.8017238e-03 3.7558760e-02 1.5711855e-02 
6.8908106e-03 3.1826727e-02 1.5818575e-02 
9.5415097e-03 3.6776986e-02 1.6475419e-02 
2.4113685e-03 2.7325312e-02 1.4684745e-02 
9.8249940e-03 3.9262172e-02 1.6200321e-02 
7.1562375e-03 3.4946091e-02 1.4870788e-02 
8.1033725e-03 3.3899900e-02 1.5884293e-02 
1.0452821e-02 3.8644060e-02 1.6830033e-02 
3.9949650e-03 3.0301517e-02 1.3993044e-02 
5.2548018e-03 3.2143850e-02 1.4115781e-02 
2.8493628e-03 2.8330261e-02 1.4101869e-02 
3.4073896e-03 2.7163053e-02 1.4946057e-02 
5.1127761e-03 2.8870340e-02 1.5241544e-02 
6.3982196e-03 3.0725341e-02 1.5378800e-02 
1.0116158e-02 3.9107103e-02 1.5704855e-02 
6.8651624e-03 3.4031089e-02 1.4411093e-02 
1.0577596e-02 3.8680885e-02 1.6148379e-02 
1.9041233e-03 2.6241129e-02 1.4261075e-02 
7.7545964e-03 3.3006869e-02 1.5357758e-02 
9.0640150e-03 3.7124045e-02 1.5041719e-02 
9.5982598e-03 3.6582824e-02 1.5578330e-02 
1.1209318e-02 4.0941093e-02 1.6131051e-02 
1.1532100e-02 4.0669449e-02 1.6433194e-02 
4.7380286e-03 3.1052077e-02 1.3650475e-02 
6.1989389e-03 3.2865107e-02 1.3982123e-02 
3.4571339e-03 2.9182469e-02 1.3523016e-02 
2.3392669e-03 2.7261402e-02 1.3667460e-02 
2.9031758e-03 2.6075790e-02 1.4522298e-02 
5.8972719e-03 2.9604826e-02 1.4929834e-02 
7.1478928e-03 3.1749398e-02 1.4998688e-02 
4.5906291e-03 2.7717985e-02 1.4789851e-02 
1.3942351e-03 2.5151454e-02 1.3833922e-02 
8.2407398e-03 3.5255674e-02 1.4217345e-02 
8.7752668e-03 3.4718040e-02 1.4744666e-02 
4.2127231e-03 2.9940600e-02 1.3176668e-02 
5.3875996e-03 2.8464578e-02 1.4472378e-02 
1.8274399e-03 2.6187409e-02 1.3230139e-02 
2.3969528e-03 2.4982901e-02 1.4095307e-02 
5.8789561e-03 3.1878304e-02 1.3491524e-02 
2.9101504e-03 2.8042737e-02 1.3044280e-02 
6.7871078e-03 3.0825606e-02 1.4451460e-02 
4.0598991e-03 2.6545329e-02 1.4328890e-02 
1.2548049e-02 4.3181397e-02 1.5768914e-02 
8.8229211e-04 2.4055524e-02 1.3403184e-02 
1.1745151e-02 4.1384902e-02 1.4988228e-02 
5.1911394e-03 3.0671453e-02 1.3045886e-02 
6.1607473e-03 2.9524408e-02 1.4077773e-02 
3.6790026e-03 2.8808853e-02 1.2693842e-02 
1.7571012e-03 2.3804868e-02 1.3640786e-02 
1.3126784e-03 2.5106423e-02 1.2789170e-02 
4.8705037e-03 2.7305175e-02 1.4004864e-02 
2.3542331e-03 2.6882987e-02 1.2556473e-02 
3.5211872e-03 2.5353104e-02 1.3858947e-02 
1.0937369e-02 3.9578982e-02 1.4204944e-02 
7.2970125e-03 3.3135023e-02 1.3293499e-02 
3.6816456e-04 2.2954388e-02 1.2968862e-02 
7.7777640e-03 3.2463931e-02 1.3751255e-02 
4.8614312e-03 2.9647324e-02 1.2537110e-02 
3.1370535e-03 2.7657224e-02 1.2202068e-02 
7.9809997e-04 2.4021564e-02 1.2345935e-02 
1.3786562e-03 2.2779347e-02 1.3230989e-02 
5.7882573e-03 2.8569737e-02 1.3508444e-02 
4.3444270e-03 2.6125938e-02 1.3528544e-02 
1.7896330e-03 2.5702028e-02 1.2059484e-02 
1.0125604e-02 3.7762266e-02 1.3419916e-02 
2.9734399e-03 2.4139997e-02 1.3378413e-02 
-1.4608020e-04 2.1847486e-02 1.2532417e-02 
4.1523925e-03 2.8398897e-02 1.2074270e-02 
5.1427125e-03 2.7224427e-02 1.3118844e-02 
2.8118677e-04 2.2930982e-02 1.1898829e-02 
8.6877384e-04 2.1671357e-02 1.2792937e-02 
2.5870933e-03 2.6485234e-02 1.1701081e-02 
3.8119964e-03 2.4927869e-02 1.3041004e-02 
6.2928335e-03 3.0878363e-02 1.2313507e-02 
1.2161831e-03 2.4499927e-02 1.1553375e-02 
6.8234364e-03 3.0312113e-02 1.2828095e-02 
2.4188675e-03 2.2908632e-02 1.2887476e-02 
9.3118902e-03 3.5940688e-02 1.2631409e-02 
-6.6231698e-04 2.0738209e-02 1.2091823e-02 
5.8348133e-04 2.0777514e-02 1.2424127e-02 
-2.3528501e-04 2.1838488e-02 1.1449802e-02 
3.8145366e-03 2.7338758e-02 1.1546360e-02 
4.7600623e-03 2.6240669e-02 1.2525779e-02 
2.0289067e-03 2.5293989e-02 1.1190564e-02 
3.2709041e-03 2.3710545e-02 1.2544495e-02 
6.3637731e-04 2.3280388e-02 1.1037525e-02 
-1.1781056e-03 1.9624516e-02 1.1648571e-02 
1.8553318e-03 2.1654719e-02 1.2387013e-02 
8.4972410e-03 3.4113660e-02 1.1842702e-02 
3.0850449e-03 2.6049113e-02 1.1065435e-02 
1.2556450e-04 1.9669479e-02 1.1975948e-02 
-7.5176277e-04 2.0741526e-02 1.0998804e-02 
4.0960312e-03 2.4851503e-02 1.2119356e-02 
5.3265681e-03 2.8670911e-02 1.1337941e-02 
1.4652776e-03 2.4082897e-02 1.0669325e-02 
5.8743423e-03 2.8150847e-02 1.1837658e-02 
2.7239115e-03 2.2474643e-02 1.2034585e-02 
-1.6935449e-03 1.8506927e-02 1.1203571e-02 
4.7481000e-05 2.2039039e-02 1.0510429e-02 
1.2852503e-03 2.0384204e-02 1.1874666e-02 
-1.2697798e-03 1.9641308e-02 1.0543576e-02 
-4.0659340e-04 1.8486978e-02 1.1498962e-02 
7.6877386e-03 3.2291118e-02 1.1052893e-02 
2.7416311e-03 2.4953840e-02 1.0517904e-02 
3.7058124e-03 2.3840165e-02 1.1501816e-02 
8.9446857e-04 2.2853076e-02 1.0140105e-02 
-2.2095565e-03 1.7388413e-02 1.0753750e-02 
2.1695339e-03 2.1220323e-02 1.1515590e-02 
-5.4767728e-04 2.0779055e-02 9.9745588e-03 
7.0860342e-04 1.9094951e-02 1.1351134e-02 
-1.7854685e-03 1.8540194e-02 1.0086052e-02 
-1.0131396e-03 1.7260483e-02 1.1010152e-02 
1.9927330e-03 2.3622122e-02 1.0018626e-02 
3.0264559e-03 2.2408849e-02 1.1077015e-02 
-2.7234314e-03 1.6269784e-02 1.0300759e-02 
4.1040150e-03 2.5948431e-02 1.0171902e-02 
3.1813790e-04 2.1605352e-02 9.6009532e-03 
4.6564429e-03 2.5398530e-02 1.0689421e-02 
1.6102139e-03 1.9950023e-02 1.0984208e-02 
6.8764742e-03 3.0462360e-02 1.0261431e-02 
-1.1490338e-03 1.9500455e-02 9.4284443e-03 
1.2560065e-04 1.7787671e-02 1.0815897e-02 
-2.2985525e-03 1.7439565e-02 9.6261557e-03 
-1.6809225e-03 1.6089756e-02 1.0552952e-02 
1.6485387e-03 2.2498213e-02 9.4488095e-03 
-3.2351536e-03 1.5149021e-02 9.8438598e-03 
2.6306591e-03 2.1373736e-02 1.0430957e-02 
-2.6319473e-04 2.0340314e-02 9.0513099e-03 
1.0478497e-03 1.8662706e-02 1.0442358e-02 
-2.8130116e-03 1.6333671e-02 9.1604814e-03 
-2.3131859e-03 1.4881316e-02 1.0067561e-02 
-1.7563154e-03 1.8203622e-02 8.8722603e-03 
6.0723047e-03 2.8638074e-02 9.4689848e-03 
-4.5984689e-04 1.6465517e-02 1.0269945e-02 
8.8361249e-04 2.1128902e-02 8.9303320e-03 
-3.7484679e-03 1.4025955e-02 9.3828915e-03 
1.9384352e-03 1.9903254e-02 9.9871792e-03 
-1.7974472e-03 1.6593214e-02 9.1838529e-03 
3.0763915e-03 2.3615606e-02 9.1508310e-03 
3.6368626e-03 2.3064736e-02 9.6656308e-03 
-8.4819575e-04 1.9060174e-02 8.4906025e-03 
4.8097287e-04 1.7361233e-02 9.8884162e-03 
-3.3252384e-03 1.5228271e-02 8.6939642e-03 
-2.6954077e-03 1.3842857e-02 9.6311020e-03 
-2.3680734e-03 1.6891656e-02 8.3032791e-03 
-1.0502961e-03 1.5122543e-02 9.7122360e-03 
-4.2593051e-03 1.2900478e-02 8.9207301e-03 
5.2805138e-03 2.6829066e-02 8.6748833e-03 
5.4073887e-04 1.9977551e-02 8.3367433e-03 
1.5409248e-03 1.8848404e-02 9.3128746e-03 
-2.9598216e-03 1.2927699e-02 9.2303865e-03 
-3.8337784e-03 1.4123322e-02 8.2256496e-03 
-1.4385878e-03 1.7759742e-02 7.9184752e-03 
-9.0947360e-05 1.6040761e-02 9.3229301e-03 
-4.7667222e-03 1.1774627e-02 8.4569352e-03 
-2.9837391e-03 1.5559853e-02 7.7240770e-03 
-1.6460225e-03 1.3764758e-02 9.1398964e-03 
-2.3872229e-04 1.8571410e-02 7.7985656e-03 
2.2236125e-03 2.1466792e-02 8.1007574e-03 
8.3446148e-04 1.7336652e-02 8.8488776e-03 
2.7764970e-03 2.1013550e-02 8.5444953e-03 
-4.3418878e-03 1.3017751e-02 7.7537675e-03 
-3.6961269e-03 1.1596936e-02 8.6969081e-03 
4.5078732e-03 2.5045542e-02 7.8809513e-03 
-2.0312134e-03 1.6443821e-02 7.3363967e-03 
-6.6281809e-04 1.4708003e-02 8.7405005e-03 
-5.2696853e-03 1.0654925e-02 7.9891095e-03 
-3.6034167e-03 1.4213436e-02 7.1361414e-03 
-2.2434383e-03 1.2394089e-02 8.5534193e-03 
-4.8426408e-03 1.1915892e-02 7.2807609e-03 
-4.1910135e-03 1.0481335e-02 8.2230251e-03 
-5.7640421e-04 1.7394733e-02 7.1826242e-03 
4.4403737e-04 1.6270407e-02 8.1463335e-03 
-5.7689860e-03 9.5401471e-03 7.5155403e-03 
-2.6254759e-03 1.5115702e-02 6.7449161e-03 
-1.2369152e-03 1.3362230e-02 8.1492998e-03 
3.7398341e-03 2.3262279e-02 7.0883962e-03 
-4.2235553e-03 1.2854445e-02 6.5366589e-03 
-5.3393771e-03 1.0820689e-02 6.8031317e-03 
-4.6842103e-03 9.3656033e-03 7.7477689e-03 
-2.8424694e-03 1.1008631e-02 7.9596983e-03 
1.1758835e-03 1.8956183e-02 6.9336607e-03 
-1.3662386e-03 1.5954491e-02 6.6232746e-03 
1.7290694e-03 1.8539060e-02 7.3528998e-03 
-2.6794666e-04 1.4723457e-02 7.6612905e-03 
-6.2636589e-03 8.4220255e-03 7.0404802e-03 
-3.2173055e-03 1.3773077e-02 6.1386097e-03 
-1.8136731e-03 1.2003466e-02 7.5443438e-03 
-5.8337678e-03 9.7199446e-03 6.3216249e-03 
-5.1676435e-03 8.2510905e-03 7.2668707e-03 
-4.8454478e-03 1.1478232e-02 5.9240335e-03 
-3.4408772e-03 9.6114865e-03 7.3475451e-03 
2.9917313e-03 2.1504136e-02 6.2960079e-03 
-6.7547192e-03 7.3088910e-03 6.5599675e-03 
-1.6905204e-03 1.4760505e-02 5.9806779e-03 
-6.5590162e-04 1.3642251e-02 6.9274739e-03 
-6.3214717e-03 8.6283460e-03 5.8379541e-03 
-5.6507541e-03 7.1396302e-03 6.7830891e-03 
-3.8133103e-03 1.2415616e-02 5.5253101e-03 
-2.3850503e-03 1.0634974e-02 6.9226860e-03 
-7.2391341e-03 6.1982116e-03 6.0806214e-03 
-5.4641850e-03 1.0091557e-02 5.3023729e-03 
-4.0413346e-03 8.2032708e-03 6.7253606e-03 
1.3400982e-04 1.6399857e-02 5.7170340e-03 
6.8675121e-04 1.6023597e-02 6.1131879e-03 
-2.2474395e-03 1.3422994e-02 5.3682751e-03 
2.2679255e-03 1.9774849e-02 5.5026286e-03 
-6.8025654e-03 7.5373454e-03 5.3560208e-03 
-6.1227293e-03 6.0382234e-03 6.2931380e-03 
-1.2036260e-03 1.2317697e-02 6.2989499e-03 
-4.4003604e-03 1.1050561e-02 4.8979977e-03 
-2.9579003e-03 9.2560574e-03 6.2896512e-03 
-7.7161081e-03 5.1000891e-03 5.5950056e-03 
-6.0846503e-03 8.6935712e-03 4.6681343e-03 
-4.6324711e-03 6.7870370e-03 6.0875677e-03 
-7.2740414e-03 6.4635971e-03 4.8709456e-03 
-6.5909261e-03 4.9426011e-03 5.8031948e-03 
-2.7952371e-03 1.2079664e-02 4.7392189e-03 
-5.3810230e-03 6.8652346e-03 5.4412601e-03 
-1.7431165e-03 1.0986937e-02 5.6539797e-03 
-8.1845056e-03 4.0060454e-03 5.1119481e-03 
1.5505947e-03 1.8045060e-02 4.7116573e-03 
-8.6674065e-04 1.4129465e-02 4.7407658e-03 
-4.9865860e-03 9.6770991e-03 4.2675883e-03 
-3.2471144e-04 1.3639373e-02 5.1852833e-03 
-3.5214468e-03 7.8760162e-03 5.6416593e-03 
-7.7400808e-03 5.3874939e-03 4.3875077e-03 
-7.0485552e-03 3.8567001e-03 5.3114328e-03 
-6.6907681e-03 7.2950283e-03 4.0316847e-03 
-5.2229306e-03 5.3687533e-03 5.4270788e-03 
-8.6431066e-03 2.9251911e-03 4.6206098e-03 
-3.3352152e-03 1.0732902e-02 4.0959357e-03 
-2.2776793e-03 9.6542472e-03 4.9978122e-03 
-5.5606589e-03 8.3017377e-03 3.6186711e-03 
-8.1924144e-03 4.3247696e-03 3.8969808e-03 
-7.4955341e-03 2.7783921e-03 4.8151053e-03 
-4.0800250e-03 6.4923195e-03 4.9823537e-03 
8.5825240e-04 1.6358746e-02 3.9171102e-03 
-7.2937547e-03 5.8891978e-03 3.3721847e-03 
-9.0933815e-03 1.8483866e-03 4.1284752e-03 
-6.4827007e-04 1.2624073e-02 4.1461997e-03 
-9.9913962e-04 1.3046009e-02 3.8070856e-03 
-5.8029131e-03 3.9477376e-03 4.7660014e-03 
-3.8654592e-03 9.3844691e-03 3.4433976e-03 
-2.8066200e-03 8.3140330e-03 4.3241959e-03 
-8.6401133e-03 3.2690538e-03 3.4026070e-03 
-7.9365941e-03 1.7074592e-03 4.3154228e-03 
-6.1284690e-03 6.9196429e-03 2.9580898e-03 
-4.6267840e-03 5.1050168e-03 4.3055788e-03 
-9.5390752e-03 7.7690231e-04 3.6337143e-03 
1.9535249e-04 1.4699945e-02 3.1356309e-03 
-7.8933062e-03 4.4752955e-03 2.7004068e-03 
-6.3758078e-03 2.5196269e-03 4.0903594e-03 
-9.0826917e-03 2.2208001e-03 2.9064796e-03 
-8.3747143e-03 6.4124947e-04 3.8117340e-03 
-1.2910031e-03 1.0993742e-02 3.3454769e-03 
-1.6399467e-03 1.1420064e-02 3.0145235e-03 
-4.4114445e-03 7.9966057e-03 2.7714637e-03 
-3.3545741e-03 6.9149598e-03 3.6259834e-03 
-7.6039797e-03 2.4491614e-03 3.1995580e-03 
-9.9752191e-03 -2.8206513e-04 3.1412183e-03 
-6.7104194e-03 5.5217878e-03 2.2934705e-03 
-5.1950389e-03 3.6828914e-03 3.6265687e-03 
-9.5214313e-03 1.1604247e-03 2.4267598e-03 
-8.8095209e-03 -4.0761073e-04 3.3059518e-03 
-8.4688701e-03 3.0884154e-03 2.0433506e-03 
-4.3614054e-04 1.3081828e-02 2.3550473e-03 
-6.9247885e-03 1.1349641e-03 3.4086744e-03 
-1.0390214e-02 -1.3050082e-03 2.6471752e-03 
-5.0357468e-03 6.5365140e-03 2.0886466e-03 
-3.9460892e-03 5.4329210e-03 2.9634933e-03 
-1.8921790e-03 9.4229681e-03 2.5483777e-03 
-2.2391437e-03 9.8500634e-03 2.2289061e-03 
-8.1872037e-03 1.0489532e-03 2.5423968e-03 
-9.9354666e-03 1.4127132e-04 1.9538586e-03 
-7.3009972e-03 4.1293926e-03 1.6413562e-03 
-9.2294468e-03 -1.4327700e-03 2.8070265e-03 
-5.7464526e-03 2.2942126e-03 2.9645876e-03 
-1.0783718e-02 -2.3034117e-03 2.1679720e-03 
-9.0008257e-03 1.7699518e-03 1.4028017e-03 
-7.4337823e-03 -1.8236242e-04 2.7408763e-03 
-1.0325968e-03 1.1512103e-02 1.5833278e-03 
-5.6453301e-03 5.1436056e-03 1.4299848e-03 
-4.5007928e-03 4.0185843e-03 2.3241083e-03 
-1.0338084e-02 -8.6020975e-04 1.4812701e-03 
-9.6292645e-03 -2.4238760e-03 2.3141962e-03 
-3.4623430e-03 7.4944729e-03 1.4859908e-03 
-2.9205238e-03 6.9984267e-03 1.9009184e-03 
-7.8492891e-03 2.8091639e-03 1.0068564e-03 
-6.2637618e-03 9.5764408e-04 2.3173748e-03 
-8.8448552e-03 -6.0273212e-04 1.7435723e-03 
-1.1159989e-02 -3.2659969e-03 1.6908902e-03 
-7.9059321e-03 -1.4432474e-03 2.0934022e-03 
-9.5016016e-03 5.0696795e-04 7.8020582e-04 
-1.0714944e-02 -1.8271193e-03 1.0198841e-03 
-1.0007183e-02 -3.3806588e-03 1.8273279e-03 
-5.0244895e-03 2.6652650e-03 1.7007597e-03 
-6.2198271e-03 3.8117771e-03 7.8894070e-04 
-1.5870279e-03 1.0011371e-02 8.1588287e-04 
-1.1518849e-02 -4.1997414e-03 1.2184172e-03 
-6.7457375e-03 -3.1709290e-04 1.6855282e-03 
-8.3658462e-03 1.5481715e-03 3.8704721e-04 
-3.3158937e-03 6.8917708e-03 6.7826692e-04 
-3.4165557e-03 5.5649984e-03 1.0413199e-03 
-1.1075375e-02 -2.7622213e-03 5.6534569e-04 
-1.0437545e-02 -4.3738736e-03 1.3380928e-03 
-8.3447853e-03 -2.6545466e-03 1.4712121e-03 
-9.9622412e-03 -6.8809203e-04 1.6192065e-04 
-9.8945787e-03 -2.7918753e-03 7.2448904e-04 
-1.1861386e-02 -5.1151458e-03 7.6070958e-04 
-5.5197179e-03 1.3632327e-03 1.0846395e-03 
-6.1060418e-03 3.0238531e-03 1.3060975e-04 
-7.2002057e-03 -1.5334564e-03 1.0568748e-03 
-8.8421041e-03 3.4047919e-04 -2.1424533e-04 
-1.1423605e-02 -3.6817933e-03 1.1913996e-04 
-2.0853339e-03 8.5912412e-03 5.5897875e-05 
-1.0720026e-02 -5.2261907e-03 8.8146719e-04 
-9.3016261e-03 -2.7343878e-03 4.2543971e-04 
-3.8701734e-03 4.2646746e-03 3.4373711e-04 
-1.2186007e-02 -5.9955958e-03 3.0468646e-04 
-8.7623084e-03 -3.8018038e-03 8.3835132e-04 
-1.0392446e-02 -1.8396437e-03 -4.2346874e-04 
-3.7959574e-03 5.5011301e-03 -7.5801145e-05 
-5.9773391e-03 1.2999951e-04 4.9391005e-04 
-7.2533470e-03 1.3266525e-03 -4.1482787e-04 
-1.1751160e-02 -4.5648301e-03 -3.2814438e-04 
-1.1046835e-02 -6.1037922e-03 4.1759262e-04 
-7.6173414e-03 -2.6906431e-03 4.5535294e-04 
-9.2842346e-03 -8.0977741e-04 -7.9398934e-04 
-1.0294309e-02 -4.6860315e-03 -4.7844485e-05 
-1.2497373e-02 -6.8518026e-03 -1.4553960e-04 
-2.5610884e-03 7.2067166e-03 -6.9415662e-04 
-9.1418363e-03 -4.8997388e-03 2.4213774e-04 
-1.0791865e-02 -2.9315697e-03 -1.0026746e-03 
-4.6323589e-03 2.3486873e-03 -2.3976604e-04 
-5.4192953e-03 2.7437431e-03 -7.1007287e-04 
-1.2066027e-02 -5.4233139e-03 -7.6571491e-04 
-6.4025307e-03 -1.0572138e-03 -8.9263856e-05 
-1.1040985e-02 -6.8031973e-03 -5.1280233e-05 
-7.7178944e-03 1.7390790e-04 -9.9922088e-04 
-1.2796835e-02 -7.6872907e-03 -5.9343624e-04 
-8.0088964e-03 -3.8058595e-03 -1.2944671e-04 
-9.6965022e-03 -1.9039224e-03 -1.3598318e-03 
-1.1660096e-02 -7.7865552e-03 -4.9341685e-04 
-1.2458693e-02 -6.4843865e-03 -1.1661155e-03 
-9.4926348e-03 -5.9497310e-03 -3.4587810e-04 
-1.1167829e-02 -3.9783777e-03 -1.5685320e-03 
-3.0018080e-03 5.8626104e-03 -1.4298877e-03 
-1.1003505e-02 -5.7725850e-03 -1.1090084e-03 
-6.7974161e-03 -2.1818511e-03 -6.6018751e-04 
-8.1568612e-03 -9.3534408e-04 -1.5687374e-03 
-1.3076865e-02 -8.4904879e-03 -1.0368448e-03 
-8.3711231e-03 -4.8554116e-03 -7.1310555e-04 
-4.6540331e-03 2.8531468e-03 -1.5592822e-03 
-4.3119285e-03 2.4309407e-03 -1.3006192e-03 
-1.1539051e-02 -8.2313484e-03 -8.4841129e-04 
-1.0086831e-02 -2.9658861e-03 -1.9098823e-03 
-1.2507843e-02 -6.7291637e-03 -1.6274777e-03 
-5.7518077e-03 -4.5364324e-04 -1.0727253e-03 
-6.6280602e-03 2.6504853e-04 -1.6875346e-03 
-9.8223789e-03 -6.9494271e-03 -9.2725945e-04 
-1.1503214e-02 -4.9758586e-03 -2.0946863e-03 
-1.3336403e-02 -9.2687681e-03 -1.4690065e-03 
-7.1648750e-03 -3.2636421e-03 -1.2200018e-03 
-8.5543655e-03 -1.9826323e-03 -2.1201058e-03 
-3.4166004e-03 4.5597749e-03 -2.1411255e-03 
-1.1670031e-02 -8.9711184e-03 -1.3260860e-03 
-1.2776827e-02 -7.5425352e-03 -2.0952546e-03 
-8.7012742e-03 -5.8714184e-03 -1.2803540e-03 
-1.0436149e-02 -3.9569605e-03 -2.4477930e-03 
-1.3580295e-02 -1.0024994e-02 -1.8923382e-03 
-5.0276723e-03 1.6140658e-03 -2.2746094e-03 
-4.6888022e-03 1.1952515e-03 -2.0316839e-03 
-1.0117915e-02 -7.9106679e-03 -1.4802472e-03 
-1.1812970e-02 -5.9149736e-03 -2.6270866e-03 
-7.5033158e-03 -4.2950734e-03 -1.7649051e-03 
-1.3065098e-02 -8.4100198e-03 -2.5318910e-03 
-9.2336824e-03 -3.3057439e-03 -2.7209399e-03 
-6.3181538e-03 -2.2570682e-03 -2.0608737e-03 
-1.1976581e-02 -9.9252155e-03 -1.8762567e-03 
-9.0078134e-03 -6.8359822e-03 -1.8334329e-03 
-1.0757054e-02 -4.9098269e-03 -2.9626561e-03 
-1.3816096e-02 -1.0756609e-02 -2.3114020e-03 
-3.7794488e-03 3.3247748e-03 -2.8357704e-03 
-1.1949401e-02 -8.5683698e-03 -2.5738261e-03 
-1.0391462e-02 -8.8147959e-03 -2.0293507e-03 
-7.1351561e-03 -1.6941113e-03 -2.8909817e-03 
-1.3450567e-02 -9.4911112e-03 -2.8208452e-03 
-1.2096351e-02 -6.8246210e-03 -3.1404044e-03 
-1.2688295e-02 -1.0839246e-02 -2.2401402e-03 
-7.8162765e-03 -5.2765780e-03 -2.2976252e-03 
-5.3564748e-03 4.3097499e-04 -2.9759456e-03 
-5.0176457e-03 1.5571219e-05 -2.7438765e-03 
-9.2659993e-03 -3.9399709e-03 -3.1745040e-03 
-1.1822543e-02 -1.0433153e-02 -2.3596156e-03 
-1.4032642e-02 -1.1461427e-02 -2.7263057e-03 
-9.2890328e-03 -7.7519580e-03 -2.3656592e-03 
-1.1054198e-02 -5.8178683e-03 -3.4662038e-03 
-1.2926429e-02 -1.1465585e-02 -2.6014268e-03 
-1.3607104e-02 -1.0058333e-02 -3.2504350e-03 
-1.0638976e-02 -9.6892184e-03 -2.5634028e-03 
-1.2356213e-02 -7.6798536e-03 -3.6408913e-03 
-4.1069961e-03 2.1480024e-03 -3.5278008e-03 
-8.1060193e-03 -6.2161093e-03 -2.8194163e-03 
-1.4235572e-02 -1.2146274e-02 -3.1318548e-03 
-9.8759048e-03 -5.1574446e-03 -3.7367612e-03 
-1.2418513e-02 -1.1583355e-02 -2.9055520e-03 
-6.7038247e-03 -3.8125585e-03 -3.1491632e-03 
-9.5461681e-03 -8.6294822e-03 -2.8938844e-03 
-1.1065134e-02 -8.9734988e-03 -3.2676361e-03 
-1.3633477e-02 -1.0306277e-02 -3.6800699e-03 
-5.6519676e-03 -6.9632207e-04 -3.6756131e-03 
-1.1325113e-02 -6.6838837e-03 -3.9575752e-03 
-5.3138901e-03 -1.1071024e-03 -3.4552692e-03 
-1.0866021e-02 -1.0509751e-02 -3.0930450e-03 