# vtk DataFile Version 4.0
vtk output
ASCII
DATASET UNSTRUCTURED_GRID
POINTS 4496 float
-4.3633327e-01 9.6409470e-01 4.4200001e+01 
-4.3633258e-01 9.6409065e-01 4.4074627e+01 
-3.2152572e-01 9.1279918e-01 4.4200001e+01 
-3.8534868e-01 8.4052670e-01 4.4200001e+01 
-3.9589554e-01 8.5545403e-01 4.4010014e+01 
-3.2616228e-01 9.1667932e-01 4.4011734e+01 
-4.3633190e-01 9.6408653e-01 4.3948376e+01 
-2.1293370e-01 8.4677851e-01 4.4200001e+01 
-2.9042658e-01 7.3813015e-01 4.4200001e+01 
-2.1010752e-01 8.4669363e-01 4.4073502e+01 
-2.8908840e-01 7.3604190e-01 4.4072292e+01 
-3.9589015e-01 8.5505831e-01 4.3883316e+01 
-3.2487559e-01 9.1697580e-01 4.3885036e+01 
-2.0722924e-01 8.4660655e-01 4.3944645e+01 
-1.1981077e-01 7.7773046e-01 4.4200001e+01 
-2.8772619e-01 7.3391593e-01 4.3942276e+01 
-4.3633121e-01 9.6408242e-01 4.3821228e+01 
-1.9739023e-01 6.6468561e-01 4.4200001e+01 
-2.9444304e-01 7.8727525e-01 4.3879974e+01 
-8.7554991e-02 7.5255024e-01 4.4042213e+01 
-1.6445170e-01 6.4084798e-01 4.4041008e+01 
-3.2357255e-01 9.1726828e-01 4.3757431e+01 
-3.9587301e-01 8.5463828e-01 4.3755711e+01 
-2.0429766e-01 8.4651643e-01 4.3813354e+01 
-2.8633916e-01 7.3175091e-01 4.3809875e+01 
-2.6899619e-02 6.8901783e-01 4.4200001e+01 
-1.0567340e-01 7.7152997e-01 4.3875790e+01 
-4.3633053e-01 9.6407831e-01 4.3693161e+01 
-8.7133333e-02 5.9509218e-01 4.4200001e+01 
-1.8777622e-01 6.5475601e-01 4.3873402e+01 
-2.0131156e-01 8.4642249e-01 4.3679543e+01 
-3.2225290e-01 9.1755641e-01 4.3628902e+01 
-3.9584404e-01 8.5419410e-01 4.3627178e+01 
-1.0114321e-03 6.6670936e-01 4.3939713e+01 
-2.8492665e-01 7.2954547e-01 4.3675007e+01 
-1.0131179e-01 7.7015632e-01 4.3743176e+01 
-6.0682178e-02 5.7631296e-01 4.3938457e+01 
3.9444737e-02 6.2338209e-01 4.4053139e+01 
-1.8470748e-01 6.5131217e-01 4.3739727e+01 
-7.0938184e-03 5.4737431e-01 4.4052326e+01 
-4.3632981e-01 9.6407413e-01 4.3564159e+01 
7.6947339e-02 5.8804804e-01 4.4200001e+01 
-1.2721874e-02 6.8194175e-01 4.3817982e+01 
-7.7214435e-02 5.8474159e-01 4.3819649e+01 
4.0195532e-02 5.2425718e-01 4.4200001e+01 
-1.9826968e-01 8.4632379e-01 4.3543118e+01 
-9.6842363e-02 7.6872379e-01 4.3607994e+01 
-3.2091641e-01 9.1783977e-01 4.3499420e+01 
-3.9580306e-01 8.5372573e-01 4.3497700e+01 
-2.8348783e-01 7.2729832e-01 4.3537586e+01 
-1.8155001e-01 6.4778340e-01 4.3603539e+01 
1.5678726e-01 5.2239102e-01 4.4060219e+01 
1.0298219e-02 6.6009766e-01 4.3674484e+01 
1.3250886e-01 4.7546524e-01 4.4058990e+01 
-4.3632913e-01 9.6407002e-01 4.3434200e+01 
-5.0139543e-02 5.6696451e-01 4.3671154e+01 
1.3504514e-01 5.4209155e-01 4.3856747e+01 
1.0361936e-01 4.8715758e-01 4.3855240e+01 
2.0846681e-01 4.8028421e-01 4.4200001e+01 
1.9279444e-01 4.4799727e-01 4.4200001e+01 
-9.2261828e-02 7.6722860e-01 4.3470158e+01 
-1.4701239e-03 6.7547697e-01 4.3552124e+01 
-1.9517080e-01 8.4621930e-01 4.3403992e+01 
-3.1956279e-01 9.1811794e-01 4.3368977e+01 
-3.9574999e-01 8.5323322e-01 4.3367252e+01 
-1.7830023e-01 6.4416617e-01 4.3464752e+01 
-6.7131944e-02 5.7555372e-01 4.3547829e+01 
-2.8202194e-01 7.2500783e-01 4.3397518e+01 
-4.3632844e-01 9.6406585e-01 4.3303261e+01 
1.5138821e-01 5.3037512e-01 4.3609200e+01 
1.2119007e-01 4.7490793e-01 4.3606068e+01 
-8.7566733e-02 7.6566672e-01 4.3329563e+01 
-1.7495437e-01 6.4045686e-01 4.3323273e+01 
-3.1819177e-01 9.1839045e-01 4.3237537e+01 
-3.9568463e-01 8.5271639e-01 4.3235813e+01 
2.2269404e-02 6.5294570e-01 4.3398811e+01 
-1.9201367e-01 8.4610778e-01 4.3262066e+01 
-3.8899176e-02 5.5709696e-01 4.3393635e+01 
-2.8052819e-01 7.2267252e-01 4.3254715e+01 
3.7877345e-01 3.8273901e-01 4.4200001e+01 
-4.3632776e-01 9.6406174e-01 4.3171322e+01 
3.9241230e-01 3.7329337e-01 4.3965439e+01 
1.0283732e-02 6.6872352e-01 4.3271511e+01 
-5.6385640e-02 5.6585240e-01 4.3265472e+01 
-8.2753494e-02 7.6403379e-01 4.3186119e+01 
-4.0345609e-01 8.6371827e-01 4.3104889e+01 
-3.1680310e-01 9.1865683e-01 4.3105087e+01 
-1.7150842e-01 6.3665158e-01 4.3179005e+01 
-1.8879703e-01 8.4598809e-01 4.3117241e+01 
-2.7900568e-01 7.2029078e-01 4.3109074e+01 
4.0610775e-01 3.6380205e-01 4.3729839e+01 
1.6776134e-01 5.1882964e-01 4.3331150e+01 
-4.3632707e-01 9.6405768e-01 4.3038357e+01 
1.4031014e-01 4.6124566e-01 4.3307755e+01 
3.4952711e-02 6.4519531e-01 4.3111935e+01 
-7.7818394e-02 7.6232505e-01 4.3039719e+01 
-3.1539652e-01 9.1891652e-01 4.2971603e+01 
-3.9551663e-01 8.5160977e-01 4.2969879e+01 
-2.6899155e-02 5.4666573e-01 4.3105160e+01 
-1.6795819e-01 6.3274628e-01 4.3031849e+01 
-1.8551964e-01 8.4585863e-01 4.2969406e+01 
4.1985780e-01 3.5425979e-01 4.3493168e+01 
-2.7745360e-01 7.1786088e-01 4.2960495e+01 
-4.3632638e-01 9.6405357e-01 4.2904346e+01 
2.2723136e-02 6.6139150e-01 4.2979332e+01 
-4.4916678e-02 5.5559248e-01 4.2971806e+01 
-3.1397179e-01 9.1916907e-01 4.2837063e+01 
-3.9541367e-01 8.5101974e-01 4.2835335e+01 
-7.2757579e-02 7.6053542e-01 4.2890255e+01 
-1.6429928e-01 6.2873662e-01 4.2881699e+01 
1.8463810e-01 5.0694346e-01 4.3035332e+01 
-1.8218029e-01 8.4571803e-01 4.2818455e+01 
1.5503895e-01 4.5003417e-01 4.3027725e+01 
-2.7587104e-01 7.1538109e-01 4.2808868e+01 
4.3366045e-01 3.4466109e-01 4.3255390e+01 
-4.3632573e-01 9.6404958e-01 4.2769268e+01 
-3.8429454e-01 8.3484912e-01 4.2710606e+01 
-3.1252861e-01 9.1941386e-01 4.2701439e+01 
4.8404284e-02 6.3678014e-01 4.2813030e+01 
-1.4070326e-02 5.3562075e-01 4.2804932e+01 
-6.7567028e-02 7.5865942e-01 4.2737610e+01 
-1.6052702e-01 6.2461799e-01 4.2728443e+01 
-1.7877772e-01 8.4556442e-01 4.2664265e+01 
-4.3632504e-01 9.6404558e-01 4.2633099e+01 
-2.7425703e-01 7.1284944e-01 4.2654083e+01 
4.4751364e-01 3.3500037e-01 4.3016472e+01 
3.5901129e-02 6.5341437e-01 4.2674721e+01 
-3.7959340e-01 8.2794034e-01 4.2568317e+01 
-3.1106678e-01 9.1965032e-01 4.2564713e+01 
-3.2659348e-02 5.4472327e-01 4.2665997e+01 
2.0396979e-01 4.9291667e-01 4.2740131e+01 
-6.2242586e-02 7.5669110e-01 4.2581669e+01 
1.7765003e-01 4.3475360e-01 4.2732578e+01 
-1.5663649e-01 6.2038553e-01 4.2571964e+01 
-4.3632439e-01 9.6404165e-01 4.2495808e+01 
-1.7531081e-01 8.4539592e-01 4.2506718e+01 
-2.7261066e-01 7.1026409e-01 4.2496017e+01 
-3.0958602e-01 9.1987789e-01 4.2426853e+01 
-3.7859210e-01 8.2613736e-01 4.2421188e+01 
4.6141517e-01 3.2527190e-01 4.2776375e+01 
6.2686495e-02 6.2762415e-01 4.2501175e+01 
-3.3570320e-04 5.2390522e-01 4.2492062e+01 
-5.6779940e-02 7.5462401e-01 4.2422298e+01 
-4.3632373e-01 9.6403772e-01 4.2357380e+01 
-1.5262254e-01 6.1603409e-01 4.2412144e+01 
-1.7177837e-01 8.4521037e-01 4.2345684e+01 
-2.7093092e-01 7.0762289e-01 4.2334549e+01 
-3.0808610e-01 9.2009580e-01 4.2287842e+01 
-3.8275370e-01 8.3137155e-01 4.2275047e+01 
4.9876589e-02 6.4471585e-01 4.2356720e+01 
-1.9539909e-02 5.3318781e-01 4.2347118e+01 
-4.3632311e-01 9.6403396e-01 4.2217781e+01 
2.1959943e-01 4.8236796e-01 4.2385345e+01 
-5.1174615e-02 7.5245124e-01 4.2259373e+01 
1.9034323e-01 4.2346162e-01 4.2378918e+01 
-1.4847966e-01 6.1155808e-01 4.2248856e+01 
4.7536272e-01 3.1546980e-01 4.2535065e+01 
-1.6817927e-01 8.4500539e-01 4.2181026e+01 
-2.6921678e-01 7.0492369e-01 4.2169544e+01 
-3.0656675e-01 9.2030340e-01 4.2147648e+01 
-3.9470181e-01 8.4769493e-01 4.2145920e+01 
7.7868804e-02 6.1763972e-01 4.2175373e+01 
-4.3632248e-01 9.6403021e-01 4.2076988e+01 
1.4390758e-02 5.1145434e-01 4.2165581e+01 
-4.5421973e-02 7.5016522e-01 4.2092751e+01 
-1.4420210e-01 6.0695171e-01 4.2081959e+01 
-3.0502778e-01 9.2049998e-01 4.2006248e+01 
-4.0175444e-01 8.5747409e-01 4.2004128e+01 
-1.6451253e-01 8.4477836e-01 4.2012604e+01 
4.8935395e-01 3.0558801e-01 4.2292507e+01 
-2.6746723e-01 7.0216429e-01 4.2000870e+01 
6.4714879e-02 6.3520777e-01 4.2024277e+01 
-4.3632188e-01 9.6402657e-01 4.1934975e+01 
-5.4755262e-03 5.2092212e-01 4.2014156e+01 
-2.3078828e-01 8.1064087e-01 4.1931458e+01 
2.3550548e-01 4.7116494e-01 4.2073269e+01 
2.0610523e-01 4.1123796e-01 4.2066772e+01 
-3.9517213e-02 7.4775779e-01 4.1922287e+01 
-1.3978374e-01 6.0220873e-01 4.1911320e+01 
-3.0346894e-01 9.2068475e-01 4.1863613e+01 
-3.9432141e-01 8.4618556e-01 4.1861881e+01 
-1.6077711e-01 8.4452641e-01 4.1840263e+01 
-2.6568118e-01 6.9934219e-01 4.1828377e+01 
-4.3632129e-01 9.6402299e-01 4.1791718e+01 
5.0338638e-01 2.9562023e-01 4.2048656e+01 
9.4028555e-02 6.0672593e-01 4.1834507e+01 
3.0205652e-02 4.9819478e-01 4.1824417e+01 
-3.8116732e-01 8.2744831e-01 4.1725647e+01 
-3.0189002e-01 9.2085695e-01 4.1719719e+01 
-3.3455357e-02 7.4522001e-01 4.1747829e+01 
-1.3521814e-01 5.9732240e-01 4.1736786e+01 
-4.3632072e-01 9.6401960e-01 4.1647179e+01 
-1.5697217e-01 8.4424627e-01 4.1663853e+01 
-2.6385748e-01 6.9645494e-01 4.1651920e+01 
8.0488607e-02 6.2478805e-01 4.1676235e+01 
2.6870471e-01 4.4547972e-01 4.1752304e+01 
9.6269641e-03 5.0785345e-01 4.1665993e+01 
2.4764967e-01 3.8646612e-01 4.1743168e+01 
-3.0029076e-01 9.2101562e-01 4.1574532e+01 
-3.9388368e-01 8.4456980e-01 4.1572796e+01 
5.1745731e-01 2.8556010e-01 4.1803486e+01 
-2.7231261e-02 7.4254233e-01 4.1569210e+01 
-1.3049847e-01 5.9228569e-01 4.1558201e+01 
-4.3632016e-01 9.6401632e-01 4.1501339e+01 
-1.5309690e-01 8.4393430e-01 4.1483204e+01 
-2.6199502e-01 6.9349992e-01 4.1471333e+01 
-2.9867104e-01 9.2115986e-01 4.1428024e+01 
-3.9364263e-01 8.4372103e-01 4.1426289e+01 
1.1125199e-01 5.9476525e-01 4.1477348e+01 
4.7217656e-02 4.8404291e-01 4.1467384e+01 
-4.3631962e-01 9.6401310e-01 4.1354160e+01 
-2.0839609e-02 7.3971421e-01 4.1386261e+01 
-1.2561750e-01 5.8709091e-01 4.1375404e+01 
5.3156406e-01 2.7540097e-01 4.1556946e+01 
-1.4915068e-01 8.4358656e-01 4.1298138e+01 
-2.9703063e-01 9.2128879e-01 4.1280167e+01 
-3.9338648e-01 8.4284443e-01 4.1278431e+01 
-2.6009262e-01 6.9047421e-01 4.1286449e+01 
2.9365057e-01 4.2687622e-01 4.1391586e+01 
9.7278498e-02 6.1333776e-01 4.1311302e+01 
2.7470219e-01 3.6807936e-01 4.1382729e+01 
2.5872495e-02 4.9389899e-01 4.1301384e+01 
-4.3631911e-01 9.6401012e-01 4.1205620e+01 
-1.4274905e-02 7.3672432e-01 4.1198803e+01 
-1.2056758e-01 5.8173001e-01 4.1188221e+01 
-2.9536936e-01 9.2140132e-01 4.1130928e+01 
[...]
POINT_DATA 4496
FIELD FieldData 1
DISPLACEMENT 3 4496  float
-3.9405026e-03 -4.1179890e-03 -5.0990462e-02 
-3.8797145e-03 -4.0560351e-03 -5.0545469e-02 
-4.0318649e-03 -4.1859164e-03 -5.0959907e-02 
-3.7635844e-03 -3.9677722e-03 -5.1026545e-02 
-3.6851326e-03 -3.8859395e-03 -5.0349995e-02 
-3.9408058e-03 -4.0933867e-03 -5.0292026e-02 
-3.8184938e-03 -3.9936360e-03 -5.0097361e-02 
-4.0805107e-03 -4.2188372e-03 -5.0939634e-02 
-3.7096743e-03 -3.9165756e-03 -5.1030833e-02 
-4.0239813e-03 -4.1601197e-03 -5.0489314e-02 
-3.6456196e-03 -3.8516053e-03 -5.0577931e-02 
-3.6228632e-03 -3.8226279e-03 -4.9900498e-02 
-3.8822773e-03 -4.0330966e-03 -4.9841568e-02 
-3.9663892e-03 -4.1003069e-03 -5.0030608e-02 
-4.0953960e-03 -4.2248145e-03 -5.0928377e-02 
-3.5804133e-03 -3.7854584e-03 -5.0116852e-02 
-3.7568270e-03 -3.9307810e-03 -4.9646072e-02 
-3.7149147e-03 -3.9145625e-03 -5.1021777e-02 
-3.6535277e-03 -3.8408255e-03 -4.9872704e-02 
-4.0213438e-03 -4.1466733e-03 -5.0365064e-02 
-3.6443833e-03 -3.8391829e-03 -5.0453182e-02 
-3.8233115e-03 -3.9723627e-03 -4.9387898e-02 
-3.5601244e-03 -3.7588349e-03 -4.9447801e-02 
-3.9076926e-03 -4.0393500e-03 -4.9563248e-02 
-3.5140137e-03 -3.7180998e-03 -4.9647320e-02 
-4.0674652e-03 -4.1952911e-03 -5.0926909e-02 
-3.9497339e-03 -4.0732198e-03 -4.9773835e-02 
-3.6946861e-03 -3.8674579e-03 -4.9191553e-02 
-3.7587576e-03 -3.9433874e-03 -5.1002450e-02 
-3.5521258e-03 -3.7488316e-03 -4.9862787e-02 
-3.8478458e-03 -3.9772075e-03 -4.9086940e-02 
-3.7638978e-03 -3.9111720e-03 -4.8930969e-02 
-3.4969042e-03 -3.6945522e-03 -4.8991874e-02 
-3.9387234e-03 -4.0628095e-03 -5.0001454e-02 
-3.4463960e-03 -3.6494981e-03 -4.9169075e-02 
-3.8901472e-03 -4.0113139e-03 -4.9301729e-02 
-3.6380382e-03 -3.8173913e-03 -5.0070517e-02 
-3.9713979e-03 -4.0975641e-03 -5.0405707e-02 
-3.4853346e-03 -3.6809179e-03 -4.9388561e-02 
-3.7250649e-03 -3.8963810e-03 -5.0462876e-02 
-3.6320994e-03 -3.8036520e-03 -4.8733760e-02 
-4.0323143e-03 -4.1590226e-03 -5.0926160e-02 
-3.8919807e-03 -4.0136543e-03 -4.9567584e-02 
-3.5695736e-03 -3.7508060e-03 -4.9652718e-02 
-3.8299523e-03 -3.9937212e-03 -5.0975431e-02 
-3.7868107e-03 -3.9138431e-03 -4.8601415e-02 
-3.8293714e-03 -3.9481837e-03 -4.8820540e-02 
-3.7040373e-03 -3.8495201e-03 -4.8470747e-02 
-3.4331980e-03 -3.6297787e-03 -4.8532616e-02 
-3.3775005e-03 -3.5795977e-03 -4.8681829e-02 
-3.4173080e-03 -3.6117451e-03 -4.8905462e-02 
-3.9633829e-03 -4.0835324e-03 -5.0423525e-02 
-3.8158125e-03 -3.9357306e-03 -4.9057882e-02 
-3.8187786e-03 -3.9651594e-03 -5.0454054e-02 
-3.5690144e-03 -3.7393677e-03 -4.8272643e-02 
-3.5069361e-03 -3.6833473e-03 -4.9121279e-02 
-3.8690416e-03 -3.9880848e-03 -4.9702175e-02 
-3.6944624e-03 -3.8453012e-03 -4.9739130e-02 
-4.0311767e-03 -4.1490640e-03 -5.0915297e-02 
-3.9339024e-03 -4.0694699e-03 -5.0938804e-02 
-3.7673581e-03 -3.8837849e-03 -4.8329983e-02 
-3.7689693e-03 -3.8864473e-03 -4.8621845e-02 
-3.7245404e-03 -3.8492002e-03 -4.8106369e-02 
-3.6437113e-03 -3.7873932e-03 -4.8007179e-02 
-3.3690042e-03 -3.5645065e-03 -4.8070051e-02 
-3.3480336e-03 -3.5412910e-03 -4.8413221e-02 
-3.4358618e-03 -3.6142103e-03 -4.8687700e-02 
-3.3073158e-03 -3.5083853e-03 -4.8185311e-02 
-3.5054649e-03 -3.6745949e-03 -4.7808185e-02 
-3.7525732e-03 -3.8676539e-03 -4.8821412e-02 
-3.5782750e-03 -3.7248442e-03 -4.8852250e-02 
-3.7040629e-03 -3.8180624e-03 -4.7829747e-02 
-3.2774443e-03 -3.4694988e-03 -4.7911532e-02 
-3.5829088e-03 -3.7247811e-03 -4.7540221e-02 
-3.3042859e-03 -3.4987142e-03 -4.7604121e-02 
-3.6878318e-03 -3.8034678e-03 -4.8077468e-02 
-3.6609883e-03 -3.7832467e-03 -4.7601506e-02 
-3.3710862e-03 -3.5443967e-03 -4.8135970e-02 
-3.2357993e-03 -3.4358143e-03 -4.7679219e-02 
-4.1203443e-03 -4.2113387e-03 -5.0880540e-02 
-3.4414481e-03 -3.6093497e-03 -4.7340304e-02 
-4.0103309e-03 -4.0976331e-03 -5.0045937e-02 
-3.6390682e-03 -3.7521664e-03 -4.7624040e-02 
-3.2972244e-03 -3.4725396e-03 -4.7685605e-02 
-3.6394265e-03 -3.7509738e-03 -4.7319561e-02 
-3.2509249e-03 -3.4429203e-03 -4.7138289e-02 
-3.5216757e-03 -3.6617229e-03 -4.7069803e-02 
-3.2055380e-03 -3.3963546e-03 -4.7400132e-02 
-3.5960886e-03 -3.7159044e-03 -4.7086541e-02 
-3.1628630e-03 -3.3618086e-03 -4.7163274e-02 
-3.8998302e-03 -3.9834431e-03 -4.9207661e-02 
-3.6218204e-03 -3.7326009e-03 -4.7832657e-02 
-3.3769622e-03 -3.5436021e-03 -4.6868946e-02 
-3.4381025e-03 -3.5799078e-03 -4.7791291e-02 
-3.5544112e-03 -3.6656596e-03 -4.7057863e-02 
-3.5734088e-03 -3.6824655e-03 -4.6799097e-02 
-3.4599155e-03 -3.5981403e-03 -4.6595972e-02 
-3.1734314e-03 -3.3656673e-03 -4.6661872e-02 
-3.2302092e-03 -3.4002480e-03 -4.7112290e-02 
-3.1322299e-03 -3.3217848e-03 -4.6878695e-02 
-3.5298259e-03 -3.6471672e-03 -4.6561141e-02 
-3.7888121e-03 -3.8687796e-03 -4.8365720e-02 
-3.0885648e-03 -3.2864050e-03 -4.6637159e-02 
-3.3119116e-03 -3.4773340e-03 -4.6394140e-02 
-3.5035477e-03 -3.6121628e-03 -4.6585970e-02 
-3.1533821e-03 -3.3254982e-03 -4.6644114e-02 
-3.3976724e-03 -3.5340609e-03 -4.6118610e-02 
-3.1072646e-03 -3.2983997e-03 -4.6185613e-02 
-3.5059508e-03 -3.6124897e-03 -4.6268072e-02 
-3.0575600e-03 -3.2458080e-03 -4.6346981e-02 
-3.4826724e-03 -3.5889801e-03 -4.6781514e-02 
-3.4621216e-03 -3.5769516e-03 -4.6024986e-02 
-3.3044722e-03 -3.4424243e-03 -4.6796836e-02 
-3.0127969e-03 -3.2095120e-03 -4.6100684e-02 
-3.6773062e-03 -3.7536395e-03 -4.7520306e-02 
-3.2464406e-03 -3.4105775e-03 -4.5915853e-02 
-3.0317428e-03 -3.2235193e-03 -4.5746658e-02 
-3.3349413e-03 -3.4694793e-03 -4.5637820e-02 
-3.4151569e-03 -3.5219088e-03 -4.5996685e-02 
-3.0840465e-03 -3.2506252e-03 -4.6047941e-02 
-3.4370290e-03 -3.5410041e-03 -4.5726154e-02 
-2.9813910e-03 -3.1683042e-03 -4.5804620e-02 
-3.3929637e-03 -3.5052409e-03 -4.5477930e-02 
-3.1804317e-03 -3.3432946e-03 -4.5434058e-02 
-2.9354864e-03 -3.1310585e-03 -4.5553319e-02 
-3.5652979e-03 -3.6380272e-03 -4.6671446e-02 
-3.3620244e-03 -3.4660448e-03 -4.5505207e-02 
-2.9563962e-03 -3.1476221e-03 -4.5244452e-02 
-3.2716806e-03 -3.4043724e-03 -4.5153487e-02 
-3.0040522e-03 -3.1727834e-03 -4.5560881e-02 
-3.3437097e-03 -3.4454744e-03 -4.5733683e-02 
-3.3665861e-03 -3.4679710e-03 -4.5173034e-02 
-3.1688998e-03 -3.3014782e-03 -4.5748174e-02 
-2.9037979e-03 -3.0893453e-03 -4.5251355e-02 
-3.1138388e-03 -3.2754480e-03 -4.4948701e-02 
-3.3223049e-03 -3.4319675e-03 -4.4919331e-02 
-2.8567098e-03 -3.0510898e-03 -4.4994976e-02 
-3.2079187e-03 -3.3387314e-03 -4.4665553e-02 
-2.8833298e-03 -3.0734090e-03 -4.4724971e-02 
-3.4528039e-03 -3.5219346e-03 -4.5819622e-02 
-3.2696414e-03 -3.3717775e-03 -4.4891365e-02 
-2.9322624e-03 -3.0951758e-03 -4.4940446e-02 
-3.2945112e-03 -3.3932573e-03 -4.4608336e-02 
-3.0468067e-03 -3.2071099e-03 -4.4459801e-02 
-2.8246145e-03 -3.0087600e-03 -4.4686805e-02 
-3.2500359e-03 -3.3570633e-03 -4.4349074e-02 
-2.7763434e-03 -2.9695025e-03 -4.4425219e-02 
-3.1436267e-03 -3.2725604e-03 -4.4174120e-02 
-2.8168496e-03 -3.0051218e-03 -4.4208620e-02 
-3.2139847e-03 -3.3133039e-03 -4.4379041e-02 
-2.8489130e-03 -3.0140849e-03 -4.4433434e-02 
-2.9792695e-03 -3.1382698e-03 -4.3967415e-02 
-3.1772184e-03 -3.2740149e-03 -4.4477180e-02 
-3.2207719e-03 -3.3168427e-03 -4.4031799e-02 
-2.9966151e-03 -3.1254871e-03 -4.4497386e-02 
-2.7439073e-03 -2.9266020e-03 -4.4110723e-02 
-3.3396308e-03 -3.4052006e-03 -4.4963904e-02 
-3.1761248e-03 -3.2804750e-03 -4.3766782e-02 
-2.6943751e-03 -2.8862818e-03 -4.3843728e-02 
-3.0787853e-03 -3.2058305e-03 -4.3679167e-02 
-2.7686195e-03 -2.9540746e-03 -4.3751232e-02 
-3.1174568e-03 -3.2148529e-03 -4.3739323e-02 
-2.9112676e-03 -3.0689517e-03 -4.3471444e-02 
-2.7745955e-03 -2.9336251e-03 -4.3787237e-02 
-3.1453182e-03 -3.2386831e-03 -4.3443054e-02 
-2.6615087e-03 -2.8427239e-03 -4.3522768e-02 
-3.0135880e-03 -3.1387084e-03 -4.3180417e-02 
-2.7091054e-03 -2.8921864e-03 -4.3250605e-02 
-3.1004755e-03 -3.2021042e-03 -4.3172073e-02 
-3.2259848e-03 -3.2880183e-03 -4.4105303e-02 
-2.6106688e-03 -2.8013000e-03 -4.3250285e-02 
-3.0590731e-03 -3.1535577e-03 -4.3205034e-02 
-2.8428596e-03 -2.9991779e-03 -4.2971734e-02 
-2.6876593e-03 -2.8490501e-03 -4.3259174e-02 
-2.8727402e-03 -3.0100795e-03 -4.2935461e-02 
-3.0307043e-03 -3.1230794e-03 -4.3374699e-02 
-2.8481849e-03 -2.9729519e-03 -4.3395173e-02 
-3.0680988e-03 -3.1587256e-03 -4.2841818e-02 
-2.5774559e-03 -2.7571518e-03 -4.2922605e-02 
-2.9478758e-03 -3.0710802e-03 -4.2678185e-02 
-2.6297807e-03 -2.8128824e-03 -4.2752288e-02 
-3.0231974e-03 -3.1220277e-03 -4.2564608e-02 
-2.5251501e-03 -2.7144875e-03 -4.2644233e-02 
-2.7737950e-03 -2.9287692e-03 -4.2468242e-02 
-3.1119005e-03 -3.1704204e-03 -4.3244302e-02 
-2.9581152e-03 -3.0506488e-03 -4.2537745e-02 
-2.6106718e-03 -2.7655887e-03 -4.2585731e-02 
-2.5473849e-03 -2.7312019e-03 -4.2276509e-02 
-2.8814576e-03 -3.0027351e-03 -4.2172104e-02 
-2.9890598e-03 -3.0768926e-03 -4.2227365e-02 
-2.4916255e-03 -2.6697558e-03 -4.2309612e-02 
-2.7040720e-03 -2.8577261e-03 -4.1961007e-02 
-2.9440508e-03 -3.0400667e-03 -4.1943923e-02 
-2.4380891e-03 -2.6260796e-03 -4.2025469e-02 
-2.8968027e-03 -2.9863147e-03 -4.1980106e-02 
-2.8796203e-03 -2.9665036e-03 -4.2243078e-02 
-2.5198720e-03 -2.6772399e-03 -4.2035058e-02 
-2.7130211e-03 -2.8287873e-03 -4.2249754e-02 
-2.8145032e-03 -2.9338391e-03 -4.1662320e-02 
-2.4885791e-03 -2.6692885e-03 -4.1738413e-02 
-2.9973667e-03 -3.0523916e-03 -4.2381529e-02 
-2.9080666e-03 -2.9930868e-03 -4.1599669e-02 
-2.4042788e-03 -2.5807777e-03 -4.1683763e-02 
-2.6339281e-03 -2.7862126e-03 -4.1450385e-02 
-2.8629629e-03 -2.9561340e-03 -4.1309763e-02 
-2.3492684e-03 -2.5358722e-03 -4.1393638e-02 
-2.7470049e-03 -2.8643904e-03 -4.1149035e-02 
-2.4172899e-03 -2.5968044e-03 -4.1226320e-02 
-2.7909996e-03 -2.8785425e-03 -4.1283589e-02 
-2.4402027e-03 -2.5907226e-03 -4.1333094e-02 
-2.5634575e-03 -2.7143131e-03 -4.0936131e-02 
-2.8250702e-03 -2.9072545e-03 -4.0958352e-02 
-2.3149487e-03 -2.4897945e-03 -4.1044634e-02 
-2.8819893e-03 -2.9335613e-03 -4.1515101e-02 
-2.7800093e-03 -2.8702661e-03 -4.0661778e-02 
-2.6791636e-03 -2.7945708e-03 -4.0632151e-02 
-2.3454027e-03 -2.5237156e-03 -4.0710181e-02 
-2.2582591e-03 -2.4434789e-03 -4.0748283e-02 
-2.7108123e-03 -2.7923139e-03 -4.0977411e-02 
-2.7265230e-03 -2.8109890e-03 -4.0701378e-02 
-2.5492453e-03 -2.6586698e-03 -4.0983930e-02 
-2.3454230e-03 -2.4985259e-03 -4.0758904e-02 
-2.4922870e-03 -2.6418024e-03 -4.0417921e-02 
-2.7402006e-03 -2.8194569e-03 -4.0302869e-02 
-2.2237706e-03 -2.3969223e-03 -4.0391635e-02 
-2.6106560e-03 -2.7240920e-03 -4.0111095e-02 
-2.2730823e-03 -2.4501358e-03 -4.0190466e-02 
-2.6949411e-03 -2.7822787e-03 -3.9999321e-02 
-2.1656675e-03 -2.3493755e-03 -4.0088985e-02 
-2.7662728e-03 -2.8144256e-03 -4.0647183e-02 
-2.4207563e-03 -2.5687744e-03 -3.9895840e-02 
-2.6158870e-03 -2.6983151e-03 -3.9973959e-02 
-2.2627593e-03 -2.4086304e-03 -4.0026061e-02 
-2.5416990e-03 -2.6531417e-03 -3.9586686e-02 
-2.2001939e-03 -2.3759899e-03 -3.9666619e-02 
-2.6529378e-03 -2.7293300e-03 -3.9632771e-02 
-2.1309098e-03 -2.3022760e-03 -3.9724607e-02 
-2.3484291e-03 -2.4950788e-03 -3.9370183e-02 
-2.6078962e-03 -2.6922151e-03 -3.9322235e-02 
-2.0709545e-03 -2.2532046e-03 -3.9415453e-02 
-2.5343101e-03 -2.6101654e-03 -3.9655298e-02 
-2.3788479e-03 -2.4815155e-03 -3.9663095e-02 
-2.5246840e-03 -2.6045404e-03 -3.9297108e-02 
-2.6502209e-03 -2.6949469e-03 -3.9777689e-02 
-2.4718635e-03 -2.5813109e-03 -3.9058324e-02 
-2.1269682e-03 -2.3014988e-03 -3.9139628e-02 
-2.1713998e-03 -2.3148055e-03 -3.9351281e-02 
-2.5637622e-03 -2.6371439e-03 -3.8947929e-02 
-2.0359319e-03 -2.2055113e-03 -3.9043050e-02 
-2.2759435e-03 -2.4210813e-03 -3.8841080e-02 
-2.5187107e-03 -2.6000082e-03 -3.8630016e-02 
-1.9743112e-03 -2.1550206e-03 -3.8727514e-02 
-2.4017796e-03 -2.5091935e-03 -3.8526934e-02 
-2.0531532e-03 -2.2264121e-03 -3.8608700e-02 
-2.4315848e-03 -2.5088002e-03 -3.8605448e-02 
-2.1228993e-03 -2.2714336e-03 -3.8492642e-02 
-2.0782775e-03 -2.2191235e-03 -3.8662098e-02 
-2.2026806e-03 -2.3464223e-03 -3.8308509e-02 
-2.5332710e-03 -2.5746324e-03 -3.8904581e-02 
-2.3896045e-03 -2.4622143e-03 -3.8578454e-02 
-2.4718042e-03 -2.5422317e-03 -3.8247898e-02 
-2.2184025e-03 -2.3215800e-03 -3.8603388e-02 
-1.9390989e-03 -2.1067713e-03 -3.8346924e-02 
-2.3309481e-03 -2.4363289e-03 -3.7991554e-02 
-1.9788705e-03 -2.1508725e-03 -3.8074657e-02 
-2.4268336e-03 -2.5050659e-03 -3.7923016e-02 
-1.8760999e-03 -2.0552098e-03 -3.8024396e-02 
-2.1292870e-03 -2.2715137e-03 -3.7772380e-02 
-2.3361922e-03 -2.4107585e-03 -3.7898432e-02 
-1.9831716e-03 -2.1214653e-03 -3.7957899e-02 
-2.3779254e-03 -2.4453220e-03 -3.7532534e-02 
-2.2597953e-03 -2.3631391e-03 -3.7452728e-02 
-1.9039904e-03 -2.0747019e-03 -3.7536647e-02 
-1.8401777e-03 -2.0059405e-03 -3.7635684e-02 
-2.4164512e-03 -2.4544143e-03 -3.8030941e-02 
-2.3333693e-03 -2.4084356e-03 -3.7199926e-02 
-2.0551763e-03 -2.1958826e-03 -3.7232228e-02 
-2.1357804e-03 -2.2232176e-03 -3.7625223e-02 
-2.2624428e-03 -2.3264333e-03 -3.7592307e-02 
-1.7752534e-03 -1.9527496e-03 -3.7306521e-02 
-2.2383789e-03 -2.3102367e-03 -3.7175670e-02 
-1.8861737e-03 -2.0217451e-03 -3.7237801e-02 
-2.1881026e-03 -2.2894137e-03 -3.6909912e-02 
-1.8286402e-03 -1.9980071e-03 -3.6994733e-02 
-2.2816230e-03 -2.3459531e-03 -3.6800914e-02 
-1.7393221e-03 -1.9030964e-03 -3.6908790e-02 
-1.9805052e-03 -2.1196499e-03 -3.6687937e-02 
-2.2986778e-03 -2.3333728e-03 -3.7156310e-02 
-2.2374839e-03 -2.3093724e-03 -3.6460079e-02 
-1.6722080e-03 -1.8480396e-03 -3.6572546e-02 
-2.1157421e-03 -2.2150204e-03 -3.6363818e-02 
-1.7530386e-03 -1.9210068e-03 -3.6449052e-02 
-2.0176640e-03 -2.1019159e-03 -3.6750372e-02 
-2.1449053e-03 -2.2055516e-03 -3.6717586e-02 
-2.1368980e-03 -2.2059500e-03 -3.6425341e-02 
-1.7832243e-03 -1.9164140e-03 -3.6485497e-02 
-1.8856775e-03 -2.0155741e-03 -3.6218457e-02 
-1.9051896e-03 -2.0428777e-03 -3.6141127e-02 
-2.1846644e-03 -2.2459060e-03 -3.6059685e-02 
-1.6364473e-03 -1.7987597e-03 -3.6177471e-02 
-2.0410474e-03 -2.1388300e-03 -3.5819799e-02 
-1.6793589e-03 -1.8457704e-03 -3.5905629e-02 
-2.1401234e-03 -2.2089479e-03 -3.5717286e-02 
-2.1805349e-03 -2.2119295e-03 -3.6280841e-02 
-1.5705175e-03 -1.7446486e-03 -3.5842955e-02 
-1.8311834e-03 -1.9672490e-03 -3.5599921e-02 
-2.0384621e-03 -2.1045408e-03 -3.5667289e-02 
-1.6757584e-03 -1.8085304e-03 -3.5750657e-02 
-1.9003421e-03 -1.9812670e-03 -3.5877097e-02 
-2.0274040e-03 -2.0846901e-03 -3.5844658e-02 
-1.7877356e-03 -1.9156387e-03 -3.5497066e-02 
-1.9671284e-03 -2.0634762e-03 -3.5282001e-02 
-2.0896748e-03 -2.1478643e-03 -3.5325356e-02 
-1.6062579e-03 -1.7711225e-03 -3.5366848e-02 
-1.5342704e-03 -1.6954831e-03 -3.5457034e-02 
-1.7574154e-03 -1.8920293e-03 -3.5064343e-02 
-2.0447187e-03 -2.1105635e-03 -3.4991104e-02 
-1.4712230e-03 -1.6436459e-03 -3.5128336e-02 
-2.0626618e-03 -2.0908844e-03 -3.5409581e-02 
-1.9465717e-03 -2.0096549e-03 -3.4942359e-02 
-1.5712857e-03 -1.7037654e-03 -3.5039332e-02 
-1.8940147e-03 -1.9888880e-03 -3.4748919e-02 
-1.5340867e-03 -1.6974253e-03 -3.4833997e-02 
-1.9040066e-03 -1.9632925e-03 -3.4975395e-02 
-1.7313740e-03 -1.8224905e-03 -3.5019722e-02 
-1.9965875e-03 -2.0519199e-03 -3.4607638e-02 
-1.4341966e-03 -1.5942486e-03 -3.4750201e-02 
-1.6660908e-03 -1.7916274e-03 -3.4609463e-02 
-1.6847478e-03 -1.8178760e-03 -3.4534499e-02 
-1.3738517e-03 -1.5446426e-03 -3.4428071e-02 
-1.9511624e-03 -2.0141755e-03 -3.4280252e-02 
-1.8214361e-03 -1.9149014e-03 -3.4222011e-02 
-1.4629398e-03 -1.6247538e-03 -3.4307022e-02 
-1.4689597e-03 -1.6012619e-03 -3.4341812e-02 
-1.8564985e-03 -1.9167404e-03 -3.4232542e-02 
-1.9459428e-03 -1.9711396e-03 -3.4545027e-02 
-1.6132019e-03 -1.7447966e-03 -3.4010224e-02 
-1.3364016e-03 -1.4952573e-03 -3.4057580e-02 
-1.9053414e-03 -1.9579106e-03 -3.3904873e-02 
-1.7946481e-03 -1.8454792e-03 -3.4116432e-02 
-1.6149085e-03 -1.7008639e-03 -3.4099713e-02 
-1.7499027e-03 -1.8419874e-03 -3.3700839e-02 
-1.3956825e-03 -1.5554342e-03 -3.3775441e-02 
-1.2777596e-03 -1.4469526e-03 -3.3741392e-02 
-1.8603081e-03 -1.9204358e-03 -3.3584826e-02 
-1.5353905e-03 -1.6558191e-03 -3.3507518e-02 
-1.5418539e-03 -1.6720527e-03 -3.3490989e-02 
-1.3690544e-03 -1.5009806e-03 -3.3657182e-02 
-1.7240978e-03 -1.7830294e-03 -3.3444125e-02 
-1.2411607e-03 -1.3988690e-03 -3.3378005e-02 
-1.8158493e-03 -1.8656917e-03 -3.3217199e-02 
-1.6786001e-03 -1.7693250e-03 -3.3183999e-02 
-1.8304256e-03 -1.8526907e-03 -3.3688772e-02 
-1.3224096e-03 -1.4813350e-03 -3.3268280e-02 
-1.4404126e-03 -1.5628877e-03 -3.3115443e-02 
-1.5083950e-03 -1.5919771e-03 -3.3318263e-02 
-1.4715837e-03 -1.6003589e-03 -3.2977279e-02 
-1.1852217e-03 -1.3528416e-03 -3.3067629e-02 
-1.7702706e-03 -1.8276919e-03 -3.2904096e-02 
-1.6792829e-03 -1.7271470e-03 -3.3262260e-02 
-1.2710461e-03 -1.4027321e-03 -3.2987066e-02 
-1.6808743e-03 -1.7355871e-03 -3.2858878e-02 
-1.6085185e-03 -1.6979363e-03 -3.2672994e-02 
-1.2532906e-03 -1.4107737e-03 -3.2757096e-02 
-1.1474568e-03 -1.3040876e-03 -3.2712512e-02 
-1.7279105e-03 -1.7751786e-03 -3.2544270e-02 
-1.3309054e-03 -1.4605132e-03 -3.2505289e-02 
-1.4019449e-03 -1.5293261e-03 -3.2468416e-02 
-1.7146544e-03 -1.7339949e-03 -3.2836713e-02 
-1.0934395e-03 -1.2596176e-03 -3.2407768e-02 
-1.6826491e-03 -1.7374665e-03 -3.2237459e-02 
-1.3647291e-03 -1.4559316e-03 -3.2560814e-02 
-1.5649667e-03 -1.6186924e-03 -3.2473378e-02 
-1.5388390e-03 -1.6270683e-03 -3.2166880e-02 
-1.1752847e-03 -1.3065829e-03 -3.2329060e-02 
-1.1512757e-03 -1.3102776e-03 -3.2196496e-02 
-1.5959209e-03 -1.6479973e-03 -3.2193299e-02 
-1.3333225e-03 -1.4592952e-03 -3.1963971e-02 
-1.0552944e-03 -1.2107861e-03 -3.2059070e-02 
-1.6417678e-03 -1.6864744e-03 -3.1885229e-02 
-1.1175516e-03 -1.2721425e-03 -3.1749193e-02 
-1.4531636e-03 -1.5437310e-03 -3.1662989e-02 
-1.0037416e-03 -1.1684292e-03 -3.1760190e-02 
-1.5964940e-03 -1.6488725e-03 -3.1583782e-02 
-1.5993408e-03 -1.6157973e-03 -3.1989679e-02 
-1.3006630e-03 -1.4079673e-03 -3.1518783e-02 
-1.0817057e-03 -1.2127449e-03 -3.1684238e-02 
-1.5126832e-03 -1.5621120e-03 -3.1540655e-02 
-1.2656498e-03 -1.3901317e-03 -3.1465016e-02 
-9.6615416e-04 -1.1205833e-03 -3.1418689e-02 
-1.4495964e-03 -1.4916173e-03 -3.1570029e-02 
-1.3256404e-03 -1.3910128e-03 -3.1600080e-02 
-1.0316039e-03 -1.1882950e-03 -3.1317133e-02 
-1.5568050e-03 -1.5989597e-03 -3.1238101e-02 
-1.4273972e-03 -1.5084166e-03 -3.1207317e-02 
-1.1539168e-03 -1.2575634e-03 -3.1474169e-02 
-1.4189591e-03 -1.4710600e-03 -3.1336807e-02 
-9.1638160e-04 -1.0795196e-03 -3.1124612e-02 
-1.5105958e-03 -1.5606259e-03 -3.0944973e-02 
-1.1984814e-03 -1.3215182e-03 -3.0971248e-02 
-9.9027925e-04 -1.1208664e-03 -3.1050758e-02 
-1.4311478e-03 -1.4779812e-03 -3.0902360e-02 
-1.4844139e-03 -1.4983569e-03 -3.1150218e-02 
-9.4716164e-04 -1.1034437e-03 -3.0769508e-02 
-1.3563056e-03 -1.4350881e-03 -3.0664111e-02 
-8.7860838e-04 -1.0318343e-03 -3.0789703e-02 
-1.4739813e-03 -1.5138966e-03 -3.0606311e-02 
-1.1318581e-03 -1.2535375e-03 -3.0482681e-02 
-1.3359712e-03 -1.3753067e-03 -3.0735197e-02 
-1.2129945e-03 -1.2755756e-03 -3.0764613e-02 
-8.3005242e-04 -9.9163339e-04 -3.0501388e-02 
-1.4276613e-03 -1.4754153e-03 -3.0318882e-02 
-9.0082007e-04 -1.0309604e-03 -3.0429950e-02 
-1.2809099e-03 -1.3591695e-03 -3.0143177e-02 
-1.3581141e-03 -1.4009461e-03 -3.0217398e-02 
-9.9272688e-04 -1.0947637e-03 -3.0342665e-02 
-8.6356490e-04 -1.0180727e-03 -3.0151496e-02 
-7.9291768e-04 -9.4492396e-04 -3.0172952e-02 
-1.3919772e-03 -1.4296771e-03 -2.9987119e-02 
-1.0661193e-03 -1.1863827e-03 -2.9998541e-02 
-1.3701245e-03 -1.3815665e-03 -3.0318826e-02 
-1.0606145e-03 -1.1650489e-03 -2.9810831e-02 
-7.4613211e-04 -9.0631127e-04 -2.9889697e-02 
-1.2242385e-03 -1.2719072e-03 -2.9929891e-02 
-1.1896731e-03 -1.2744968e-03 -2.9723361e-02 
-1.3460467e-03 -1.3914846e-03 -2.9705172e-02 
-8.5540238e-04 -1.0040806e-03 -2.9793553e-02 
-8.1324478e-04 -9.4297749e-04 -2.9820541e-02 
-1.2230005e-03 -1.2595601e-03 -2.9907137e-02 
-1.1008411e-03 -1.1605301e-03 -2.9936150e-02 
-1.2723705e-03 -1.3144327e-03 -2.9664682e-02 
-7.6244300e-04 -9.1784756e-04 -2.9583575e-02 
-1.0013372e-03 -1.1201476e-03 -2.9519551e-02 