# vtk DataFile Version 4.0
vtk output
ASCII
DATASET UNSTRUCTURED_GRID
POINTS 6166 float
-4.3633327e-01 9.6409470e-01 4.4200001e+01 
-4.3633261e-01 9.6409082e-01 4.4079685e+01 
-3.2145375e-01 9.1276109e-01 4.4200001e+01 
-3.8566181e-01 8.4097892e-01 4.4200001e+01 
-3.3069235e-01 9.1895354e-01 4.4019413e+01 
-3.8473952e-01 8.3919770e-01 4.4024357e+01 
-4.3633196e-01 9.6408689e-01 4.3958702e+01 
-2.1293370e-01 8.4677851e-01 4.4200001e+01 
-2.9042658e-01 7.3813015e-01 4.4200001e+01 
-2.1019450e-01 8.4669626e-01 4.4077393e+01 
-2.8909999e-01 7.3605996e-01 4.4073399e+01 
-3.2963324e-01 9.1929907e-01 4.3898094e+01 
-3.8679782e-01 8.4179753e-01 4.3889645e+01 
-2.0740938e-01 8.4661204e-01 4.3952713e+01 
-4.3633130e-01 9.6408290e-01 4.3837040e+01 
-1.1677200e-01 7.7521002e-01 4.4200001e+01 
-2.8775173e-01 7.3395580e-01 4.3944717e+01 
-1.9365783e-01 6.6203654e-01 4.4200001e+01 
-1.1309985e-01 7.7540898e-01 4.4012005e+01 
-1.9181472e-01 6.5888047e-01 4.4006447e+01 
-3.2856464e-01 9.1964108e-01 4.3776085e+01 
-3.8823184e-01 8.4352189e-01 4.3765770e+01 
-2.0457739e-01 8.4652513e-01 4.3825886e+01 
-2.8638119e-01 7.3181647e-01 4.3813885e+01 
-4.3633065e-01 9.6407896e-01 4.3714680e+01 
-1.0911675e-01 7.7426714e-01 4.3886200e+01 
-2.1001574e-02 6.8269837e-01 4.4200001e+01 
-1.8902887e-01 6.5566909e-01 4.3876659e+01 
-7.8887597e-02 5.9015810e-01 4.4200001e+01 
-3.2748649e-01 9.1997939e-01 4.3653378e+01 
-3.9889076e-01 8.5876143e-01 4.3651733e+01 
-2.0169757e-01 8.4643483e-01 4.3696846e+01 
-7.2496021e-03 6.7325598e-01 4.3947758e+01 
-1.0504345e-01 7.7307969e-01 4.3758209e+01 
-2.8498772e-01 7.2964084e-01 4.3680840e+01 
-6.3224643e-02 5.7783771e-01 4.3940754e+01 
3.5808440e-02 6.2679136e-01 4.4056572e+01 
-1.8616955e-01 6.5238589e-01 4.3744686e+01 
-4.3632996e-01 9.6407503e-01 4.3591618e+01 
-9.8678423e-03 5.4892725e-01 4.4055367e+01 
-1.8652271e-02 6.8798620e-01 4.3834026e+01 
-7.9845116e-02 5.8636194e-01 4.3823372e+01 
8.7777540e-02 5.7885915e-01 4.4200001e+01 
5.3622175e-02 5.1732427e-01 4.4200001e+01 
-3.2639861e-01 9.2031354e-01 4.3529953e+01 
-3.9894739e-01 8.5844576e-01 4.3528313e+01 
-1.9876897e-01 8.4634024e-01 4.3565521e+01 
-1.0087753e-01 7.7184403e-01 4.3627972e+01 
-2.8357074e-01 7.2742778e-01 4.3545506e+01 
-1.8323407e-01 6.4902818e-01 4.3610458e+01 
-4.3632931e-01 9.6407109e-01 4.3467831e+01 
3.1033519e-03 6.6751039e-01 4.3691772e+01 
-5.3600248e-02 5.6906003e-01 4.3676846e+01 
1.2436585e-01 5.5082864e-01 4.3886215e+01 
1.7079005e-01 5.1095647e-01 4.4054855e+01 
1.4951277e-01 4.6697062e-01 4.4053665e+01 
1.0028158e-01 4.8915190e-01 4.3877911e+01 
-4.0513036e-01 8.6722642e-01 4.3405304e+01 
-3.2530096e-01 9.2064321e-01 4.3405800e+01 
-9.6616447e-02 7.7055699e-01 4.3495411e+01 
-8.4563000e-03 6.8258613e-01 4.3574005e+01 
-1.9579062e-01 8.4624058e-01 4.3431831e+01 
2.1753120e-01 4.7335833e-01 4.4200001e+01 
2.0360756e-01 4.4289169e-01 4.4200001e+01 
-1.8021962e-01 6.4559317e-01 4.3473904e+01 
-7.0636064e-02 5.7773441e-01 4.3555408e+01 
-2.8212959e-01 7.2517604e-01 4.3407806e+01 
-4.3632865e-01 9.6406716e-01 4.3343307e+01 
1.3810426e-01 5.4143524e-01 4.3628246e+01 
-3.2419339e-01 9.2096806e-01 4.3280907e+01 
-3.9903235e-01 8.5775709e-01 4.3279266e+01 
-9.2257597e-02 7.6921552e-01 4.3360443e+01 
1.1508528e-01 4.7804743e-01 4.3612068e+01 
-1.9276154e-01 8.4613472e-01 4.3295704e+01 
1.4013666e-02 6.6131532e-01 4.3426643e+01 
-1.7712323e-01 6.4207786e-01 4.3334946e+01 
-2.8066361e-01 7.2288430e-01 4.3267666e+01 
-4.3382257e-02 5.5983055e-01 4.3403778e+01 
-4.3632799e-01 9.6406323e-01 4.3218033e+01 
3.7877345e-01 3.8273901e-01 4.4200001e+01 
3.9076596e-01 3.7443376e-01 4.3993755e+01 
-3.2307580e-01 9.2128778e-01 4.3155251e+01 
-3.9906058e-01 8.5738426e-01 4.3153610e+01 
-8.7798268e-02 7.6781619e-01 4.3222996e+01 
1.9689407e-02 6.5803534e-01 4.3290459e+01 
-6.0862999e-02 5.6866169e-01 4.3278019e+01 
-1.8968078e-01 8.4602165e-01 4.3157055e+01 
-1.7394182e-01 6.3847917e-01 4.3193501e+01 
-4.3632734e-01 9.6405929e-01 4.3091995e+01 
4.0275589e-01 3.6612594e-01 4.3787510e+01 
1.2304078e-01 5.5709994e-01 4.3330139e+01 
-2.7917209e-01 7.2055119e-01 4.3125000e+01 
2.5336364e-01 4.4907436e-01 4.3468094e+01 
2.3670304e-01 4.1684708e-01 4.3469433e+01 
1.3086085e-01 4.6634668e-01 4.3336948e+01 
-3.8351217e-01 8.3473074e-01 4.3036392e+01 
-3.2194808e-01 9.2160189e-01 4.3028820e+01 
2.5518833e-02 6.5462554e-01 4.3151749e+01 
-8.3235659e-02 7.6635528e-01 4.3082981e+01 
4.1474071e-01 3.5781288e-01 4.3581264e+01 
-1.8654740e-01 8.4590012e-01 4.3015797e+01 
-3.2522827e-02 5.5011308e-01 4.3120937e+01 
-1.7067213e-01 6.3479382e-01 4.3049488e+01 
-4.3632668e-01 9.6405542e-01 4.2965172e+01 
-2.7765438e-01 7.1817529e-01 4.2979721e+01 
2.6620242e-01 4.4011977e-01 4.3261948e+01 
1.3584816e-02 6.7044950e-01 4.3025066e+01 
-3.2081014e-01 9.2191011e-01 4.2901604e+01 
-3.8160574e-01 8.3169121e-01 4.2902863e+01 
-7.8566879e-02 7.6482886e-01 4.2940315e+01 
-5.0480481e-02 5.5910730e-01 4.2990566e+01 
4.2671782e-01 3.4949207e-01 4.3375019e+01 
1.6821145e-01 5.2049083e-01 4.3083881e+01 
-1.8336046e-01 8.4576881e-01 4.2871841e+01 
-4.3632606e-01 9.6405160e-01 4.2837555e+01 
-1.6731077e-01 6.3101834e-01 4.2902817e+01 
1.4768846e-01 4.5400122e-01 4.3051926e+01 
-2.7610970e-01 7.1575516e-01 4.2831745e+01 
-3.1966189e-01 9.2221189e-01 4.2773579e+01 
-3.8560396e-01 8.3684862e-01 4.2767078e+01 
3.7660085e-02 6.4738947e-01 4.2866421e+01 
-7.3788933e-02 7.6323271e-01 4.2794899e+01 
4.3868470e-01 3.4116083e-01 4.3168777e+01 
-4.3632543e-01 9.6404779e-01 4.2709122e+01 
-2.0968946e-02 5.3986710e-01 4.2827656e+01 
-1.8011902e-01 8.4562629e-01 4.2725094e+01 
-1.6385415e-01 6.2714905e-01 4.2753403e+01 
-2.7453732e-01 7.1328926e-01 4.2680973e+01 
-3.1850323e-01 9.2250693e-01 4.2644733e+01 
-3.9907700e-01 8.5570478e-01 4.2643101e+01 
2.5504474e-02 6.6361672e-01 4.2734810e+01 
1.8471870e-01 5.0880390e-01 4.2796177e+01 
-6.8898737e-02 7.6156229e-01 4.2646645e+01 
-3.9438177e-02 5.4903054e-01 4.2692345e+01 
-4.3632481e-01 9.6404403e-01 4.2579861e+01 
4.5063871e-01 3.3281663e-01 4.2962532e+01 
1.6565691e-01 4.4095638e-01 4.2756321e+01 
-1.7682223e-01 8.4547096e-01 4.2575459e+01 
-1.6029853e-01 6.2318206e-01 4.2601143e+01 
-4.0415615e-01 8.6278629e-01 4.2516582e+01 
-3.1733403e-01 9.2279470e-01 4.2515053e+01 
-2.7293649e-01 7.1077597e-01 4.2527313e+01 
5.0482783e-02 6.3954860e-01 4.2569923e+01 
-4.3632418e-01 9.6404034e-01 4.2449757e+01 
-6.3893095e-02 7.5981271e-01 4.2495445e+01 
-8.6617703e-03 5.2904755e-01 4.2523201e+01 
-1.7346917e-01 8.4530097e-01 4.2422829e+01 
-1.5663996e-01 6.1911333e-01 4.2445942e+01 
3.0435190e-01 4.1341871e-01 4.2643494e+01 
4.6257737e-01 3.2445681e-01 4.2756287e+01 
-3.1615424e-01 9.2307472e-01 4.2384518e+01 
-3.9902648e-01 8.5475212e-01 4.2382885e+01 
-2.7130640e-01 7.0821363e-01 4.2370659e+01 
3.8079392e-02 6.5619886e-01 4.2433029e+01 
2.0230262e-01 4.9620378e-01 4.2497147e+01 
-4.3632355e-01 9.6403670e-01 4.2318787e+01 
-5.8768708e-02 7.5797862e-01 4.2341198e+01 
-2.7680276e-02 5.3838593e-01 4.2382599e+01 
1.8486446e-01 4.2715022e-01 4.2449394e+01 
-3.8436696e-01 8.3356136e-01 4.2264896e+01 
8.9545198e-02 5.3233254e-01 4.2382050e+01 
-3.3225983e-01 9.3122375e-01 4.2255634e+01 
-1.7005907e-01 8.4511453e-01 4.2267101e+01 
-1.5287429e-01 6.1493850e-01 4.2287693e+01 
4.7449806e-01 3.1607881e-01 4.2550037e+01 
-2.6964626e-01 7.0560038e-01 4.2210907e+01 
-4.3632296e-01 9.6403313e-01 4.2186939e+01 
6.4036883e-02 6.3103610e-01 4.2261456e+01 
-5.3522192e-02 7.5605446e-01 4.2183796e+01 
-3.7873057e-01 8.2541841e-01 4.2124020e+01 
-3.1376252e-01 9.2360973e-01 4.2120819e+01 
4.4639236e-03 5.1760370e-01 4.2206776e+01 
-1.6659111e-01 8.4490943e-01 4.2108162e+01 
-1.4899719e-01 6.1065292e-01 4.2126286e+01 
-4.3632239e-01 9.6402961e-01 4.2054195e+01 
4.8639825e-01 3.0768004e-01 4.2343792e+01 
-2.6795524e-01 7.0293444e-01 4.2047943e+01 
2.4746621e-01 4.6040925e-01 4.2191032e+01 
7.1105182e-02 6.2650448e-01 4.2102463e+01 
-3.1255043e-01 9.2386365e-01 4.1987617e+01 
-4.8150036e-02 7.5403398e-01 4.2023121e+01 
-1.5144684e-02 5.2712250e-01 4.2060505e+01 
-3.7995064e-01 8.2661813e-01 4.1980038e+01 
2.0541981e-01 4.1251117e-01 4.2130333e+01 
-1.6306458e-01 8.4468329e-01 4.1945896e+01 
-4.3632182e-01 9.6402621e-01 4.1920536e+01 
-1.4500406e-01 6.0625184e-01 4.1961609e+01 
1.3375351e-01 5.6370503e-01 4.1969833e+01 
-2.6623246e-01 7.0021385e-01 4.1881653e+01 
-3.1132740e-01 9.2410773e-01 4.1853493e+01 
-3.9880505e-01 8.5261923e-01 4.1851868e+01 
4.9827534e-01 2.9925787e-01 4.2137547e+01 
3.4194937e-01 3.8685825e-01 4.2025021e+01 
-4.2648647e-02 7.5191063e-01 4.1859051e+01 
-2.5401810e-01 7.9503769e-01 4.1808533e+01 
1.8480448e-02 5.0547802e-01 4.1877510e+01 
-4.3632126e-01 9.6402287e-01 4.1785946e+01 
-1.5947884e-01 8.4443361e-01 4.1780174e+01 
-1.4089009e-01 6.0172999e-01 4.1793541e+01 
-3.1009343e-01 9.2434150e-01 4.1718426e+01 
-4.0306881e-01 8.5845691e-01 4.1716179e+01 
8.5861288e-02 6.1683756e-01 4.1774368e+01 
-2.6447710e-01 6.9743657e-01 4.1711910e+01 
3.0427080e-01 4.1638452e-01 4.1839512e+01 
2.6751360e-01 3.7833902e-01 4.1830902e+01 
5.1012677e-01 2.9080975e-01 4.1931297e+01 
-3.7014309e-02 7.4967718e-01 4.1691463e+01 
-4.3632072e-01 9.6401966e-01 4.1650398e+01 
2.5847588e-02 4.9913955e-01 4.1707767e+01 
-1.5583332e-01 8.4415752e-01 4.1610870e+01 
-3.8322043e-01 8.2981020e-01 4.1595791e+01 
-3.0884841e-01 9.2456430e-01 4.1582397e+01 
-1.3665022e-01 5.9708190e-01 4.1621960e+01 
9.3565010e-02 6.1167872e-01 4.1605015e+01 
-2.6268822e-01 6.9460052e-01 4.1538593e+01 
-4.3632022e-01 9.6401656e-01 4.1513885e+01 
-3.1243213e-02 7.4732590e-01 4.1520226e+01 
2.7603787e-01 3.7115356e-01 4.1624012e+01 
2.8505871e-01 4.3281260e-01 4.1611507e+01 
5.2195001e-01 2.8233302e-01 4.1725052e+01 
3.3468332e-02 4.9260557e-01 4.1534447e+01 
-3.9853087e-01 8.5081697e-01 4.1443768e+01 
-3.2560509e-01 9.3245691e-01 4.1443577e+01 
-1.5212752e-01 8.4385180e-01 4.1437847e+01 
-1.3227913e-01 5.9230179e-01 4.1446728e+01 
-4.3631971e-01 9.6401358e-01 4.1376381e+01 
[...]
POINT_DATA 6166
FIELD FieldData 5
DISPLACEMENT 3 6166  float
1.0436817e+00 9.5086169e-01 -3.6931619e-02 
1.0377773e+00 9.4491965e-01 -3.6639459e-02 
1.0436894e+00 9.5097327e-01 -4.0047482e-02 
1.0439718e+00 9.5103353e-01 -3.3351935e-02 
1.0348207e+00 9.4204319e-01 -3.9460395e-02 
1.0353560e+00 9.4236159e-01 -3.2883190e-02 
1.0318402e+00 9.3894470e-01 -3.6345661e-02 
1.0437464e+00 9.5110011e-01 -4.2128474e-02 
1.0441500e+00 9.5119965e-01 -3.2962117e-02 
1.0377264e+00 9.4504619e-01 -4.1961506e-02 
1.0379413e+00 9.4495016e-01 -3.2618005e-02 
1.0288647e+00 9.3605161e-01 -3.9235000e-02 
1.0287403e+00 9.3570465e-01 -3.2583345e-02 
1.0316045e+00 9.3888968e-01 -4.1791614e-02 
1.0258698e+00 9.3293631e-01 -3.6050200e-02 
1.0438343e+00 9.5122844e-01 -4.3326568e-02 
1.0316306e+00 9.3859804e-01 -3.2268289e-02 
1.0442501e+00 9.5133382e-01 -3.3966880e-02 
1.0346035e+00 9.4194514e-01 -4.3060623e-02 
1.0347583e+00 9.4177932e-01 -3.3432145e-02 
1.0228752e+00 9.3002629e-01 -3.9008155e-02 
1.0226582e+00 9.2958438e-01 -3.2297388e-02 
1.0253776e+00 9.3262744e-01 -4.1618619e-02 
1.0252147e+00 9.3214011e-01 -3.1912852e-02 
1.0198656e+00 9.2689401e-01 -3.5753056e-02 
1.0284280e+00 9.3573481e-01 -4.2894680e-02 
1.0439825e+00 9.5138222e-01 -4.3472763e-02 
1.0283945e+00 9.3537438e-01 -3.3095848e-02 
1.0443165e+00 9.5147055e-01 -3.6064290e-02 
1.0168517e+00 9.2396665e-01 -3.8779803e-02 
1.0170318e+00 9.2392999e-01 -3.2248329e-02 
1.0190421e+00 9.2625618e-01 -4.1442335e-02 
1.0316139e+00 9.3894166e-01 -4.3070968e-02 
1.0221457e+00 9.2941707e-01 -4.2725600e-02 
1.0186902e+00 9.2557311e-01 -3.1551562e-02 
1.0316100e+00 9.3868846e-01 -3.5597607e-02 
1.0370345e+00 9.4439101e-01 -4.3160588e-02 
1.0219239e+00 9.2886204e-01 -3.2754526e-02 
1.0138272e+00 9.2081720e-01 -3.5454217e-02 
1.0372525e+00 9.4440687e-01 -3.7072934e-02 
1.0260044e+00 9.3330187e-01 -4.2960685e-02 
1.0258449e+00 9.3287361e-01 -3.4916174e-02 
1.0441474e+00 9.5155561e-01 -4.3699861e-02 
1.0443642e+00 9.5161611e-01 -3.8986556e-02 
1.0107936e+00 9.1787243e-01 -3.8549926e-02 
1.0109767e+00 9.1783607e-01 -3.1930752e-02 
1.0125949e+00 9.1977251e-01 -4.1262593e-02 
1.0157533e+00 9.2298859e-01 -4.2553090e-02 
1.0120540e+00 9.1889358e-01 -3.1184182e-02 
1.0153430e+00 9.2223883e-01 -3.2407843e-02 
1.0077537e+00 9.1470546e-01 -3.5153449e-02 
1.0190555e+00 9.2631042e-01 -4.2675104e-02 
1.0186716e+00 9.2566931e-01 -3.4997657e-02 
1.0287836e+00 9.3610722e-01 -4.3354612e-02 
1.0371175e+00 9.4450504e-01 -4.4079922e-02 
1.0372103e+00 9.4449097e-01 -4.0862087e-02 
1.0285809e+00 9.3576223e-01 -3.9109208e-02 
1.0049242e+00 9.1174990e-01 -3.1761739e-02 
1.0047001e+00 9.1174281e-01 -3.8318343e-02 
1.0092473e+00 9.1644591e-01 -4.2376995e-02 
1.0132476e+00 9.2047125e-01 -4.2564198e-02 
1.0060325e+00 9.1317302e-01 -4.1079208e-02 
1.0442916e+00 9.5174003e-01 -4.4875912e-02 
1.0443954e+00 9.5177126e-01 -4.2689033e-02 
1.0086484e+00 9.1550148e-01 -3.2056030e-02 
1.0127084e+00 9.1965479e-01 -3.4293752e-02 
1.0053024e+00 9.1209835e-01 -3.0810870e-02 
1.0016448e+00 9.0855831e-01 -3.4851193e-02 
1.0161334e+00 9.2338336e-01 -4.2940535e-02 
9.9857092e-01 9.0557790e-01 -3.8085472e-02 
9.9876052e-01 9.0554237e-01 -3.1289589e-02 
1.0026242e+00 9.0978575e-01 -4.2197011e-02 
1.0155476e+00 9.2265195e-01 -3.8644332e-02 
9.9935097e-01 9.0645432e-01 -4.0891808e-02 
1.0060502e+00 9.1322976e-01 -4.2262059e-02 
1.0018369e+00 9.0864658e-01 -3.1698879e-02 
9.9843198e-01 9.0518361e-01 -3.0430956e-02 
1.0052857e+00 9.1220069e-01 -3.4383375e-02 
9.9549997e-01 9.0237510e-01 -3.4546979e-02 
1.0443555e+00 9.5191967e-01 -4.8333611e-02 
1.0342424e+00 9.4174749e-01 -4.8012901e-02 
9.9240553e-01 8.9937609e-01 -3.7850954e-02 
9.9259865e-01 8.9934146e-01 -3.0965777e-02 
9.9588042e-01 9.0300447e-01 -4.2012867e-02 
9.9937135e-01 9.0651238e-01 -4.2048238e-02 
9.9911201e-01 9.0597439e-01 -3.3655711e-02 
9.9254680e-01 8.9961261e-01 -4.0700044e-02 
9.9490464e-01 9.0167069e-01 -3.1336289e-02 
9.8931843e-01 8.9615560e-01 -3.4241010e-02 
1.0241292e+00 9.3157524e-01 -4.7691923e-02 
1.0014791e+00 9.0863645e-01 -4.2248193e-02 
9.9143904e-01 8.9814639e-01 -3.0044729e-02 
1.0083975e+00 9.1563457e-01 -4.3663114e-02 
1.0085748e+00 9.1573298e-01 -4.1258357e-02 
1.0020610e+00 9.0908647e-01 -3.8175408e-02 
9.8689556e-01 8.9359176e-01 -3.0330086e-02 
9.8620343e-01 8.9313817e-01 -3.7614204e-02 
9.9256986e-01 8.9967239e-01 -4.1829735e-02 
9.8901188e-01 8.9609832e-01 -4.1824486e-02 
1.0140164e+00 9.2140371e-01 -4.7370270e-02 
9.8561621e-01 8.9264411e-01 -4.0504582e-02 
9.9142432e-01 8.9825529e-01 -3.3754345e-02 
9.8784751e-01 8.9456987e-01 -3.0967491e-02 
9.8310006e-01 8.8989919e-01 -3.3933003e-02 
9.8431951e-01 8.9098203e-01 -2.9651884e-02 
9.9829221e-01 9.0547061e-01 -4.3351259e-02 
9.8632669e-01 8.9339674e-01 -4.1715357e-02 
9.7996378e-01 8.8686329e-01 -3.7375905e-02 
9.8035449e-01 8.8700956e-01 -2.9951140e-02 
9.8201478e-01 8.8906324e-01 -4.1631494e-02 
9.8502684e-01 8.9180428e-01 -3.3000890e-02 
1.0039043e+00 9.1123146e-01 -4.7046717e-02 
9.8944783e-01 8.9654332e-01 -4.2065989e-02 
9.7855490e-01 8.8554478e-01 -4.0304281e-02 
9.7684366e-01 8.8360530e-01 -3.3622906e-02 
9.8066211e-01 8.8734055e-01 -3.0593589e-02 
9.8809314e-01 8.9503926e-01 -3.7704546e-02 
9.7706920e-01 8.8368738e-01 -2.9252298e-02 
9.7368592e-01 8.8055050e-01 -3.7135795e-02 
9.7368878e-01 8.8030618e-01 -2.9681372e-02 
9.7858369e-01 8.8560820e-01 -4.1376472e-02 
9.7488505e-01 8.8189542e-01 -4.1433532e-02 
9.9379337e-01 9.0106165e-01 -4.6722922e-02 
9.7054917e-01 8.7727410e-01 -3.3311412e-02 
9.7705692e-01 8.8380343e-01 -3.3109497e-02 
9.7135895e-01 8.7831080e-01 -4.0098812e-02 
9.7334349e-01 8.7997842e-01 -3.0213024e-02 
9.6968472e-01 8.7625849e-01 -2.8846221e-02 
9.6737045e-01 8.7420017e-01 -3.6893412e-02 
9.6757698e-01 8.7416798e-01 -2.9649682e-02 
9.7210151e-01 8.7909329e-01 -4.1258570e-02 
9.7535253e-01 8.8236958e-01 -4.1603383e-02 
9.6761853e-01 8.7459087e-01 -4.1229956e-02 
9.7042102e-01 8.7711352e-01 -3.2328539e-02 
9.6421689e-01 8.7090540e-01 -3.2998569e-02 
9.8368609e-01 8.9089769e-01 -4.6398535e-02 
9.7361302e-01 8.8047898e-01 -3.7230451e-02 
9.6402431e-01 8.7093878e-01 -3.9888173e-02 
9.6588928e-01 8.7248045e-01 -2.9827677e-02 
9.6136516e-01 8.6792487e-01 -2.9444523e-02 
9.6101654e-01 8.6781317e-01 -3.6650050e-02 
9.6216226e-01 8.6869133e-01 -2.8432550e-02 
9.6406013e-01 8.7100583e-01 -4.0899064e-02 
9.5784563e-01 8.6449814e-01 -3.2683209e-02 
9.6021199e-01 8.6714679e-01 -4.1020695e-02 
9.6215284e-01 8.6881566e-01 -3.2449894e-02 
9.5654678e-01 8.6342388e-01 -3.9672017e-02 
9.5829529e-01 8.6484295e-01 -2.9434942e-02 
9.6799451e-01 8.7500596e-01 -4.2409614e-02 
9.7358328e-01 8.8073981e-01 -4.6072960e-02 
9.5462292e-01 8.6138535e-01 -3.6404870e-02 
9.5483631e-01 8.6135435e-01 -2.8980305e-02 
9.5449674e-01 8.6098230e-01 -2.8011309e-02 
9.5732433e-01 8.6423904e-01 -4.0777557e-02 
9.6071404e-01 8.6765331e-01 -4.1121561e-02 
9.5143473e-01 8.5805219e-01 -3.2366723e-02 
9.5265895e-01 8.5955673e-01 -4.0806547e-02 
9.5526415e-01 8.6187339e-01 -3.1639609e-02 
9.5858967e-01 8.6537826e-01 -3.6754515e-02 
9.4910383e-01 8.5558021e-01 -2.8375585e-02 
9.5511299e-01 8.6189866e-01 -3.7088644e-02 
9.4831276e-01 8.5502791e-01 -3.5702094e-02 
9.4892114e-01 8.5576123e-01 -3.9450128e-02 
9.5055437e-01 8.5706013e-01 -2.9037211e-02 
9.6348453e-01 8.7058544e-01 -4.5743894e-02 
9.4668353e-01 8.5312659e-01 -2.7583869e-02 
9.4498515e-01 8.5156852e-01 -3.2048244e-02 
9.4896352e-01 8.5583252e-01 -4.0396426e-02 
9.4495618e-01 8.5181677e-01 -4.0585510e-02 
9.4222838e-01 8.4866577e-01 -2.7914360e-02 
9.4171858e-01 8.4841591e-01 -3.5906836e-02 
9.4667572e-01 8.5325730e-01 -3.1773996e-02 
9.4114351e-01 8.4794718e-01 -3.9223157e-02 
9.4266331e-01 8.4912771e-01 -2.8631615e-02 
9.3849498e-01 8.4504473e-01 -3.1727195e-02 
9.5339060e-01 8.6044002e-01 -4.5414336e-02 
9.3871838e-01 8.4511942e-01 -2.7148567e-02 
9.4577223e-01 8.5264403e-01 -4.0836331e-02 
9.4119024e-01 8.4802067e-01 -4.0135156e-02 
9.3520516e-01 8.4187275e-01 -3.5655078e-02 
9.3709815e-01 8.4392273e-01 -4.0357266e-02 
9.3951738e-01 8.4604633e-01 -3.0932928e-02 
9.3518680e-01 8.4158969e-01 -2.7569262e-02 
9.4298643e-01 8.4969938e-01 -3.6276467e-02 
9.3320864e-01 8.3997679e-01 -3.8988944e-02 
9.3196291e-01 8.3848101e-01 -3.1403664e-02 
9.3461865e-01 8.4104323e-01 -2.8221544e-02 
9.3480432e-01 8.4160221e-01 -3.9799903e-02 
9.3059695e-01 8.3695811e-01 -2.6706411e-02 
9.2865086e-01 8.3528966e-01 -3.5400409e-02 
9.2887628e-01 8.3526099e-01 -2.7617173e-02 
9.4330710e-01 8.5030824e-01 -4.5083445e-02 
9.3774384e-01 8.4460574e-01 -4.1450944e-02 
9.2908168e-01 8.3587122e-01 -4.0121648e-02 
9.2674732e-01 8.3326149e-01 -3.1773604e-02 
9.3059105e-01 8.3709592e-01 -3.1082734e-02 
9.2539155e-01 8.3188033e-01 -3.1078946e-02 
9.2511326e-01 8.3184856e-01 -3.8744960e-02 
9.2641675e-01 8.3280277e-01 -2.7807266e-02 
9.2205662e-01 8.2866806e-01 -3.5143990e-02 
9.2224270e-01 8.2860196e-01 -2.7373426e-02 
9.2516643e-01 8.3192521e-01 -3.9584626e-02 
9.2231530e-01 8.2863945e-01 -2.6258027e-02 
9.2863798e-01 8.3544123e-01 -4.0608373e-02 
9.2836636e-01 8.3505052e-01 -3.6924772e-02 
9.3322712e-01 8.4017932e-01 -4.4747647e-02 
9.2090321e-01 8.2765967e-01 -3.9877679e-02 
9.1877943e-01 8.2524091e-01 -3.0754438e-02 
9.2231137e-01 8.2878155e-01 -3.0733274e-02 
9.1685307e-01 8.2355654e-01 -3.8494766e-02 
9.1642737e-01 8.2274926e-01 -2.6659338e-02 
9.1542411e-01 8.2200998e-01 -3.4883935e-02 
9.1805083e-01 8.2440227e-01 -2.7383050e-02 
9.1691083e-01 8.2363611e-01 -3.9299786e-02 
9.1387075e-01 8.2015914e-01 -2.5800966e-02 
9.1213042e-01 8.1856346e-01 -3.0428018e-02 
9.1255486e-01 8.1928158e-01 -3.9625809e-02 
9.1827655e-01 8.2491779e-01 -3.6495868e-02 
9.1748631e-01 8.2423401e-01 -3.9922822e-02 
9.2315948e-01 8.3006787e-01 -4.4410147e-02 
9.1386658e-01 8.2030457e-01 -3.0379036e-02 
9.0898561e-01 8.1528574e-01 -2.6579153e-02 
9.0866357e-01 8.1520700e-01 -3.4116678e-02 
9.0842068e-01 8.1509703e-01 -3.8238443e-02 
9.0951926e-01 8.1583846e-01 -2.6955185e-02 
9.0543735e-01 8.1184578e-01 -3.0097568e-02 
9.0976346e-01 8.1646013e-01 -3.8943000e-02 
9.0525579e-01 8.1151217e-01 -2.5337821e-02 
9.0403444e-01 8.1073385e-01 -3.9365947e-02 
9.0203512e-01 8.0857503e-01 -3.4361716e-02 
9.0227008e-01 8.0854839e-01 -2.6228599e-02 
9.0525258e-01 8.1166172e-01 -3.0021602e-02 
9.0868759e-01 8.1530350e-01 -3.6414508e-02 
9.1310674e-01 8.1997573e-01 -4.4070527e-02 
8.9981419e-01 8.0646443e-01 -3.7973788e-02 
9.0698761e-01 8.1370771e-01 -3.9832648e-02 
8.9870191e-01 8.0508959e-01 -2.9763147e-02 
9.0081531e-01 8.0710554e-01 -2.6520839e-02 
9.0092343e-01 8.0759221e-01 -3.8613029e-02 
8.9527565e-01 8.0179816e-01 -3.4095623e-02 
8.9551365e-01 8.0177420e-01 -2.5876177e-02 
8.9646614e-01 8.0269432e-01 -2.4866037e-02 
8.9533502e-01 8.0201042e-01 -3.9097913e-02 
8.9646393e-01 8.0284834e-01 -2.9660381e-02 
8.9192432e-01 7.9829484e-01 -2.9429959e-02 
8.9906406e-01 8.0564034e-01 -3.5704277e-02 
9.0307027e-01 8.0990469e-01 -4.3726802e-02 
8.9102501e-01 7.9765391e-01 -3.7700720e-02 
8.9193290e-01 7.9819882e-01 -2.6079798e-02 
8.9725727e-01 8.0395162e-01 -3.9580896e-02 
8.8847500e-01 7.9498076e-01 -3.3826981e-02 
8.8871670e-01 7.9495925e-01 -2.5522949e-02 
8.9168608e-01 7.9833090e-01 -3.8285315e-02 
8.8749486e-01 7.9370058e-01 -2.4386171e-02 
8.8510531e-01 7.9145873e-01 -2.9096872e-02 
8.8644964e-01 7.9310632e-01 -3.8820699e-02 
8.8749373e-01 7.9385775e-01 -2.9295528e-02 
8.8163400e-01 7.8812635e-01 -3.3556961e-02 
8.8187730e-01 7.8810227e-01 -2.5165875e-02 
8.8204670e-01 7.8866023e-01 -3.7420202e-02 
8.9305174e-01 7.9985613e-01 -4.3379690e-02 
8.8286620e-01 7.8911322e-01 -2.5632197e-02 
8.8770670e-01 7.9424435e-01 -3.4926511e-02 
8.8760602e-01 7.9427981e-01 -3.9345596e-02 
8.7824321e-01 7.8458267e-01 -2.8758034e-02 
8.8229328e-01 7.8891873e-01 -3.7947964e-02 
8.7833649e-01 7.8452516e-01 -2.3900192e-02 
8.7737417e-01 7.8401661e-01 -3.8532473e-02 
8.7974262e-01 7.8611314e-01 -2.9624933e-02 
8.7474573e-01 7.8122890e-01 -3.3284817e-02 
8.7499493e-01 7.8121102e-01 -2.4813231e-02 
8.7287533e-01 7.7947783e-01 -3.7128266e-02 
8.8304853e-01 7.8982836e-01 -4.3037139e-02 
8.7133807e-01 7.7767152e-01 -2.8424624e-02 
8.7361211e-01 7.7984452e-01 -2.5177993e-02 
8.7779528e-01 7.8444964e-01 -3.8977899e-02 
8.7684381e-01 7.8338438e-01 -3.5270575e-02 
8.7284601e-01 7.7945703e-01 -3.7608985e-02 
8.6781824e-01 7.7429658e-01 -3.3013929e-02 
8.6806709e-01 7.7427763e-01 -2.4456635e-02 
8.6898941e-01 7.7516526e-01 -2.3402968e-02 
8.6810327e-01 7.7473682e-01 -3.8233384e-02 
8.7041646e-01 7.7678901e-01 -2.9683724e-02 
8.6438799e-01 7.7071506e-01 -2.8087081e-02 
8.6350960e-01 7.7010500e-01 -3.6826119e-02 
8.6348307e-01 7.6983476e-01 -2.8911047e-02 
8.7306583e-01 7.7983075e-01 -4.2690445e-02 
8.6416411e-01 7.7038813e-01 -2.4717376e-02 
8.6807126e-01 7.7470767e-01 -3.8465220e-02 
8.6084634e-01 7.6732129e-01 -3.2733377e-02 
8.6109549e-01 7.6729894e-01 -2.4096237e-02 
8.6331350e-01 7.6991749e-01 -3.7278652e-02 
8.6694169e-01 7.7348095e-01 -3.5232447e-02 
8.5944343e-01 7.6561314e-01 -2.2900987e-02 
8.5739619e-01 7.6371831e-01 -2.7742796e-02 
8.5863000e-01 7.6526064e-01 -3.7924796e-02 
8.6073381e-01 7.6710492e-01 -2.9357549e-02 
8.5382777e-01 7.6030248e-01 -3.2456450e-02 
8.5408485e-01 7.6028663e-01 -2.3737047e-02 
8.5392976e-01 7.6052934e-01 -3.6511995e-02 
8.6309892e-01 7.6985329e-01 -4.2341653e-02 
8.5451514e-01 7.6073784e-01 -2.4250923e-02 
8.5831982e-01 7.6495045e-01 -3.8091991e-02 
8.5035819e-01 7.5668329e-01 -2.7402760e-02 
8.5366583e-01 7.6027095e-01 -3.6935259e-02 
8.5723710e-01 7.6378739e-01 -3.5320509e-02 
8.4908348e-01 7.5550973e-01 -3.0537894e-02 
8.4969312e-01 7.5586545e-01 -2.2385821e-02 
8.4894586e-01 7.5558174e-01 -3.7603077e-02 
8.4676671e-01 7.5324959e-01 -3.2177106e-02 
8.5074162e-01 7.5712484e-01 -2.9215490e-02 
8.4622139e-01 7.5241715e-01 -2.2982510e-02 
8.4414172e-01 7.5074995e-01 -3.6190227e-02 
8.4327364e-01 7.4960601e-01 -2.7058132e-02 
8.5315925e-01 7.5991404e-01 -4.1988496e-02 
8.4472370e-01 7.5097007e-01 -2.4297861e-02 
8.4822142e-01 7.5485480e-01 -3.7598778e-02 
8.4417266e-01 7.5078565e-01 -3.6652919e-02 
8.4786171e-01 7.5444567e-01 -3.5893600e-02 
8.3968186e-01 7.4617416e-01 -3.1864531e-02 
8.3994114e-01 7.4615699e-01 -2.3022516e-02 
8.3973223e-01 7.4591333e-01 -2.1864761e-02 
8.3908963e-01 7.4573916e-01 -3.7268970e-02 
8.3619475e-01 7.4253601e-01 -2.6716707e-02 
8.3881760e-01 7.4521804e-01 -2.8857887e-02 
8.3421534e-01 7.4084252e-01 -3.5859838e-02 
8.4325147e-01 7.5001568e-01 -4.1628119e-02 
8.3262384e-01 7.3912412e-01 -3.1531442e-02 
8.3288652e-01 7.3911136e-01 -2.2684969e-02 
8.3472270e-01 7.4096406e-01 -2.3222718e-02 
8.3796722e-01 7.4456489e-01 -3.5542592e-02 
8.3616018e-01 7.4281240e-01 -3.7206441e-02 
8.3255947e-01 7.3919451e-01 -3.6217775e-02 
8.2916230e-01 7.3551500e-01 -2.6380306e-02 
8.2981503e-01 7.3601162e-01 -2.1342475e-02 
8.2924348e-01 7.3591340e-01 -3.6942251e-02 
8.2951981e-01 7.3588580e-01 -2.6681222e-02 
8.2561713e-01 7.3213142e-01 -3.1196121e-02 
8.2554191e-01 7.3176795e-01 -2.1934133e-02 
8.2445002e-01 7.3109853e-01 -3.5531241e-02 
8.3336425e-01 7.4014550e-01 -4.1267347e-02 
8.2487500e-01 7.3113614e-01 -2.2658769e-02 
8.2217818e-01 7.2854692e-01 -2.6042381e-02 
8.2422835e-01 7.3088288e-01 -3.5975803e-02 
8.2720256e-01 7.3375070e-01 -3.2628171e-02 
8.2796735e-01 7.3466635e-01 -3.7761826e-02 
8.2375503e-01 7.3041159e-01 -3.5957947e-02 
8.2004279e-01 7.2626305e-01 -2.0836815e-02 
8.1865287e-01 7.2518569e-01 -3.0861083e-02 
8.1891692e-01 7.2517502e-01 -2.2020055e-02 
8.1955761e-01 7.2624928e-01 -3.6612675e-02 
8.1975108e-01 7.2613567e-01 -2.6023319e-02 
8.1524235e-01 7.2163403e-01 -2.5710624e-02 
8.1484360e-01 7.2151917e-01 -3.5198569e-02 
8.2350194e-01 7.3030949e-01 -4.0915862e-02 
8.1517613e-01 7.2146338e-01 -2.2109428e-02 
8.1286520e-01 7.1912885e-01 -2.1215761e-02 
8.1174481e-01 7.1829981e-01 -3.0524921e-02 
8.1462264e-01 7.2130257e-01 -3.5657715e-02 
8.1811970e-01 7.2484380e-01 -3.7409876e-02 
8.1823725e-01 7.2488374e-01 -3.4837734e-02 
8.1041807e-01 7.1666819e-01 -2.0340873e-02 
8.1445092e-01 7.2097588e-01 -3.0240448e-02 
8.1002742e-01 7.1675187e-01 -3.6282826e-02 
8.0836034e-01 7.1477246e-01 -2.5379177e-02 
8.1255043e-01 7.1923655e-01 -3.5540149e-02 
8.1013125e-01 7.1654230e-01 -2.5383025e-02 
8.0488110e-01 7.1145785e-01 -3.0194046e-02 
8.0538988e-01 7.1210372e-01 -3.4870740e-02 
8.1364948e-01 7.2048134e-01 -4.0546082e-02 
8.0562347e-01 7.1194482e-01 -2.1573251e-02 
8.0398375e-01 7.1027714e-01 -2.0686742e-02 
8.0517328e-01 7.1189159e-01 -3.5342462e-02 
8.0151695e-01 7.0796078e-01 -2.5053438e-02 
8.0828571e-01 7.1503586e-01 -3.7054874e-02 
8.0839974e-01 7.1507365e-01 -3.4483708e-02 
8.0093652e-01 7.0722830e-01 -1.9854147e-02 
8.0065089e-01 7.0741755e-01 -3.5954192e-02 
7.9806298e-01 7.0467281e-01 -2.9858461e-02 
7.9832792e-01 7.0466495e-01 -2.1048870e-02 
8.0300498e-01 7.0955557e-01 -2.9056592e-02 
8.0274975e-01 7.0947355e-01 -3.5163190e-02 
8.0065727e-01 7.0710462e-01 -2.4759660e-02 
7.9713988e-01 7.0360398e-01 -2.4864521e-02 
7.9609156e-01 7.0285243e-01 -3.4541398e-02 
7.9472709e-01 7.0120353e-01 -2.4731210e-02 
8.0382574e-01 7.1068817e-01 -4.0175647e-02 
7.9503083e-01 7.0135325e-01 -1.9702874e-02 
7.9621637e-01 7.0257944e-01 -2.1051398e-02 
7.9587853e-01 7.0264179e-01 -3.5029791e-02 
7.9848796e-01 7.0528138e-01 -3.6695074e-02 
7.9859769e-01 7.0531720e-01 -3.4128722e-02 
7.9129893e-01 6.9794691e-01 -2.9524798e-02 
7.9155594e-01 6.9793177e-01 -2.0734699e-02 
7.9134089e-01 6.9790465e-01 -2.6902409e-02 
7.9159445e-01 6.9793576e-01 -1.9384464e-02 
7.9159582e-01 6.9819635e-01 -2.8167861e-02 
7.9143304e-01 6.9824624e-01 -3.5621967e-02 
7.9322946e-01 6.9983703e-01 -2.8719353e-02 
7.9298365e-01 6.9975835e-01 -3.4783158e-02 
7.9133034e-01 6.9782209e-01 -2.4158634e-02 
7.8798914e-01 6.9450462e-01 -2.4406224e-02 
7.8828686e-01 6.9465017e-01 -1.9391552e-02 
7.8694558e-01 6.9375908e-01 -3.4203727e-02 
7.8549337e-01 6.9191700e-01 -2.0779179e-02 
7.8694433e-01 6.9336182e-01 -2.0538922e-02 
7.9403776e-01 7.0094770e-01 -3.9801829e-02 
7.8570765e-01 6.9223875e-01 -2.4374040e-02 
7.8458422e-01 6.9126946e-01 -2.9191777e-02 
7.8674138e-01 6.9356066e-01 -3.4725193e-02 
7.8872526e-01 6.9557697e-01 -3.6333200e-02 
7.8883129e-01 6.9561076e-01 -3.3771843e-02 
7.8130203e-01 6.8786210e-01 -2.4092766e-02 
7.8239840e-01 6.8880016e-01 -1.8922271e-02 
7.8235376e-01 6.8922746e-01 -3.5290029e-02 
7.8214097e-01 6.8868774e-01 -2.3556855e-02 
7.8348762e-01 6.9015616e-01 -2.8390549e-02 
7.8325051e-01 6.9008648e-01 -3.4408864e-02 
7.7792221e-01 6.8465251e-01 -2.8865525e-02 
7.7871764e-01 6.8531126e-01 -2.4425635e-02 
7.7817595e-01 6.8464386e-01 -2.0121139e-02 
7.7794385e-01 6.8481821e-01 -3.3876423e-02 
7.7781540e-01 6.8429142e-01 -2.0040620e-02 
7.8428793e-01 6.9125646e-01 -3.9423048e-02 
7.7774537e-01 6.8462539e-01 -3.4413118e-02 
7.7466244e-01 6.8127161e-01 -2.3775341e-02 
7.7495509e-01 6.8141216e-01 -1.8762281e-02 
7.7345556e-01 6.8019021e-01 -2.7839113e-02 
7.7343148e-01 6.8036693e-01 -3.4959797e-02 
7.7333558e-01 6.7980248e-01 -1.8471526e-02 
7.7900064e-01 6.8591589e-01 -3.5967339e-02 
7.7910334e-01 6.8594694e-01 -3.3410531e-02 
7.7230656e-01 6.7894572e-01 -2.4101418e-02 
7.7183098e-01 6.7855400e-01 -2.6744716e-02 
7.7130198e-01 6.7808372e-01 -2.8538004e-02 
7.7155787e-01 6.7807955e-01 -1.9815648e-02 
7.7308524e-01 6.7969525e-01 -2.2978153e-02 
7.7377707e-01 6.8052143e-01 -2.8050143e-02 
7.7354771e-01 6.8045539e-01 -3.4027994e-02 
7.6909071e-01 6.7603362e-01 -3.3545036e-02 
7.6806861e-01 6.7473501e-01 -2.3464842e-02 
7.6836044e-01 6.7487502e-01 -1.8457776e-02 
7.6882833e-01 6.7537934e-01 -1.9558448e-02 
7.6889008e-01 6.7583919e-01 -3.4113746e-02 
7.7457225e-01 6.8160677e-01 -3.9040420e-02 
7.6473039e-01 6.7156851e-01 -2.8213101e-02 
7.6499009e-01 6.7156905e-01 -1.9514387e-02 
7.6455504e-01 6.7132413e-01 -2.5934728e-02 
7.6464856e-01 6.7165887e-01 -3.4630653e-02 
7.6440680e-01 6.7095131e-01 -1.8022433e-02 
7.6930475e-01 6.7629302e-01 -3.5597824e-02 
7.6940477e-01 6.7632222e-01 -3.3046585e-02 
7.6152164e-01 6.6824710e-01 -2.3163244e-02 