# vtk DataFile Version 4.0
vtk output
ASCII
DATASET UNSTRUCTURED_GRID
POINTS 6166 float
-4.3633327e-01 9.6409470e-01 4.4200001e+01 
-4.3633261e-01 9.6409082e-01 4.4079685e+01 
-3.2145375e-01 9.1276109e-01 4.4200001e+01 
-3.8566181e-01 8.4097892e-01 4.4200001e+01 
-3.3069235e-01 9.1895354e-01 4.4019413e+01 
-3.8473952e-01 8.3919770e-01 4.4024357e+01 
-4.3633196e-01 9.6408689e-01 4.3958702e+01 
-2.1293370e-01 8.4677851e-01 4.4200001e+01 
-2.9042658e-01 7.3813015e-01 4.4200001e+01 
-2.1019450e-01 8.4669626e-01 4.4077393e+01 
-2.8909999e-01 7.3605996e-01 4.4073399e+01 
-3.2963324e-01 9.1929907e-01 4.3898094e+01 
-3.8679782e-01 8.4179753e-01 4.3889645e+01 
-2.0740938e-01 8.4661204e-01 4.3952713e+01 
-4.3633130e-01 9.6408290e-01 4.3837040e+01 
-1.1677200e-01 7.7521002e-01 4.4200001e+01 
-2.8775173e-01 7.3395580e-01 4.3944717e+01 
-1.9365783e-01 6.6203654e-01 4.4200001e+01 
-1.1309985e-01 7.7540898e-01 4.4012005e+01 
-1.9181472e-01 6.5888047e-01 4.4006447e+01 
-3.2856464e-01 9.1964108e-01 4.3776085e+01 
-3.8823184e-01 8.4352189e-01 4.3765770e+01 
-2.0457739e-01 8.4652513e-01 4.3825886e+01 
-2.8638119e-01 7.3181647e-01 4.3813885e+01 
-4.3633065e-01 9.6407896e-01 4.3714680e+01 
-1.0911675e-01 7.7426714e-01 4.3886200e+01 
-2.1001574e-02 6.8269837e-01 4.4200001e+01 
-1.8902887e-01 6.5566909e-01 4.3876659e+01 
-7.8887597e-02 5.9015810e-01 4.4200001e+01 
-3.2748649e-01 9.1997939e-01 4.3653378e+01 
-3.9889076e-01 8.5876143e-01 4.3651733e+01 
-2.0169757e-01 8.4643483e-01 4.3696846e+01 
-7.2496021e-03 6.7325598e-01 4.3947758e+01 
-1.0504345e-01 7.7307969e-01 4.3758209e+01 
-2.8498772e-01 7.2964084e-01 4.3680840e+01 
-6.3224643e-02 5.7783771e-01 4.3940754e+01 
3.5808440e-02 6.2679136e-01 4.4056572e+01 
-1.8616955e-01 6.5238589e-01 4.3744686e+01 
-4.3632996e-01 9.6407503e-01 4.3591618e+01 
-9.8678423e-03 5.4892725e-01 4.4055367e+01 
-1.8652271e-02 6.8798620e-01 4.3834026e+01 
-7.9845116e-02 5.8636194e-01 4.3823372e+01 
8.7777540e-02 5.7885915e-01 4.4200001e+01 
5.3622175e-02 5.1732427e-01 4.4200001e+01 
-3.2639861e-01 9.2031354e-01 4.3529953e+01 
-3.9894739e-01 8.5844576e-01 4.3528313e+01 
-1.9876897e-01 8.4634024e-01 4.3565521e+01 
-1.0087753e-01 7.7184403e-01 4.3627972e+01 
-2.8357074e-01 7.2742778e-01 4.3545506e+01 
-1.8323407e-01 6.4902818e-01 4.3610458e+01 
-4.3632931e-01 9.6407109e-01 4.3467831e+01 
3.1033519e-03 6.6751039e-01 4.3691772e+01 
-5.3600248e-02 5.6906003e-01 4.3676846e+01 
1.2436585e-01 5.5082864e-01 4.3886215e+01 
1.7079005e-01 5.1095647e-01 4.4054855e+01 
1.4951277e-01 4.6697062e-01 4.4053665e+01 
1.0028158e-01 4.8915190e-01 4.3877911e+01 
-4.0513036e-01 8.6722642e-01 4.3405304e+01 
-3.2530096e-01 9.2064321e-01 4.3405800e+01 
-9.6616447e-02 7.7055699e-01 4.3495411e+01 
-8.4563000e-03 6.8258613e-01 4.3574005e+01 
-1.9579062e-01 8.4624058e-01 4.3431831e+01 
2.1753120e-01 4.7335833e-01 4.4200001e+01 
2.0360756e-01 4.4289169e-01 4.4200001e+01 
-1.8021962e-01 6.4559317e-01 4.3473904e+01 
-7.0636064e-02 5.7773441e-01 4.3555408e+01 
-2.8212959e-01 7.2517604e-01 4.3407806e+01 
-4.3632865e-01 9.6406716e-01 4.3343307e+01 
1.3810426e-01 5.4143524e-01 4.3628246e+01 
-3.2419339e-01 9.2096806e-01 4.3280907e+01 
-3.9903235e-01 8.5775709e-01 4.3279266e+01 
-9.2257597e-02 7.6921552e-01 4.3360443e+01 
1.1508528e-01 4.7804743e-01 4.3612068e+01 
-1.9276154e-01 8.4613472e-01 4.3295704e+01 
1.4013666e-02 6.6131532e-01 4.3426643e+01 
-1.7712323e-01 6.4207786e-01 4.3334946e+01 
-2.8066361e-01 7.2288430e-01 4.3267666e+01 
-4.3382257e-02 5.5983055e-01 4.3403778e+01 
-4.3632799e-01 9.6406323e-01 4.3218033e+01 
3.7877345e-01 3.8273901e-01 4.4200001e+01 
3.9076596e-01 3.7443376e-01 4.3993755e+01 
-3.2307580e-01 9.2128778e-01 4.3155251e+01 
-3.9906058e-01 8.5738426e-01 4.3153610e+01 
-8.7798268e-02 7.6781619e-01 4.3222996e+01 
1.9689407e-02 6.5803534e-01 4.3290459e+01 
-6.0862999e-02 5.6866169e-01 4.3278019e+01 
-1.8968078e-01 8.4602165e-01 4.3157055e+01 
-1.7394182e-01 6.3847917e-01 4.3193501e+01 
-4.3632734e-01 9.6405929e-01 4.3091995e+01 
4.0275589e-01 3.6612594e-01 4.3787510e+01 
1.2304078e-01 5.5709994e-01 4.3330139e+01 
-2.7917209e-01 7.2055119e-01 4.3125000e+01 
2.5336364e-01 4.4907436e-01 4.3468094e+01 
2.3670304e-01 4.1684708e-01 4.3469433e+01 
1.3086085e-01 4.6634668e-01 4.3336948e+01 
-3.8351217e-01 8.3473074e-01 4.3036392e+01 
-3.2194808e-01 9.2160189e-01 4.3028820e+01 
2.5518833e-02 6.5462554e-01 4.3151749e+01 
-8.3235659e-02 7.6635528e-01 4.3082981e+01 
4.1474071e-01 3.5781288e-01 4.3581264e+01 
-1.8654740e-01 8.4590012e-01 4.3015797e+01 
-3.2522827e-02 5.5011308e-01 4.3120937e+01 
-1.7067213e-01 6.3479382e-01 4.3049488e+01 
-4.3632668e-01 9.6405542e-01 4.2965172e+01 
-2.7765438e-01 7.1817529e-01 4.2979721e+01 
2.6620242e-01 4.4011977e-01 4.3261948e+01 
1.3584816e-02 6.7044950e-01 4.3025066e+01 
-3.2081014e-01 9.2191011e-01 4.2901604e+01 
-3.8160574e-01 8.3169121e-01 4.2902863e+01 
-7.8566879e-02 7.6482886e-01 4.2940315e+01 
-5.0480481e-02 5.5910730e-01 4.2990566e+01 
4.2671782e-01 3.4949207e-01 4.3375019e+01 
1.6821145e-01 5.2049083e-01 4.3083881e+01 
-1.8336046e-01 8.4576881e-01 4.2871841e+01 
-4.3632606e-01 9.6405160e-01 4.2837555e+01 
-1.6731077e-01 6.3101834e-01 4.2902817e+01 
1.4768846e-01 4.5400122e-01 4.3051926e+01 
-2.7610970e-01 7.1575516e-01 4.2831745e+01 
-3.1966189e-01 9.2221189e-01 4.2773579e+01 
-3.8560396e-01 8.3684862e-01 4.2767078e+01 
3.7660085e-02 6.4738947e-01 4.2866421e+01 
-7.3788933e-02 7.6323271e-01 4.2794899e+01 
4.3868470e-01 3.4116083e-01 4.3168777e+01 
-4.3632543e-01 9.6404779e-01 4.2709122e+01 
-2.0968946e-02 5.3986710e-01 4.2827656e+01 
-1.8011902e-01 8.4562629e-01 4.2725094e+01 
-1.6385415e-01 6.2714905e-01 4.2753403e+01 
-2.7453732e-01 7.1328926e-01 4.2680973e+01 
-3.1850323e-01 9.2250693e-01 4.2644733e+01 
-3.9907700e-01 8.5570478e-01 4.2643101e+01 
2.5504474e-02 6.6361672e-01 4.2734810e+01 
1.8471870e-01 5.0880390e-01 4.2796177e+01 
-6.8898737e-02 7.6156229e-01 4.2646645e+01 
-3.9438177e-02 5.4903054e-01 4.2692345e+01 
-4.3632481e-01 9.6404403e-01 4.2579861e+01 
4.5063871e-01 3.3281663e-01 4.2962532e+01 
1.6565691e-01 4.4095638e-01 4.2756321e+01 
-1.7682223e-01 8.4547096e-01 4.2575459e+01 
-1.6029853e-01 6.2318206e-01 4.2601143e+01 
-4.0415615e-01 8.6278629e-01 4.2516582e+01 
-3.1733403e-01 9.2279470e-01 4.2515053e+01 
-2.7293649e-01 7.1077597e-01 4.2527313e+01 
5.0482783e-02 6.3954860e-01 4.2569923e+01 
-4.3632418e-01 9.6404034e-01 4.2449757e+01 
-6.3893095e-02 7.5981271e-01 4.2495445e+01 
-8.6617703e-03 5.2904755e-01 4.2523201e+01 
-1.7346917e-01 8.4530097e-01 4.2422829e+01 
-1.5663996e-01 6.1911333e-01 4.2445942e+01 
3.0435190e-01 4.1341871e-01 4.2643494e+01 
4.6257737e-01 3.2445681e-01 4.2756287e+01 
-3.1615424e-01 9.2307472e-01 4.2384518e+01 
-3.9902648e-01 8.5475212e-01 4.2382885e+01 
-2.7130640e-01 7.0821363e-01 4.2370659e+01 
3.8079392e-02 6.5619886e-01 4.2433029e+01 
2.0230262e-01 4.9620378e-01 4.2497147e+01 
-4.3632355e-01 9.6403670e-01 4.2318787e+01 
-5.8768708e-02 7.5797862e-01 4.2341198e+01 
-2.7680276e-02 5.3838593e-01 4.2382599e+01 
1.8486446e-01 4.2715022e-01 4.2449394e+01 
-3.8436696e-01 8.3356136e-01 4.2264896e+01 
8.9545198e-02 5.3233254e-01 4.2382050e+01 
-3.3225983e-01 9.3122375e-01 4.2255634e+01 
-1.7005907e-01 8.4511453e-01 4.2267101e+01 
-1.5287429e-01 6.1493850e-01 4.2287693e+01 
4.7449806e-01 3.1607881e-01 4.2550037e+01 
-2.6964626e-01 7.0560038e-01 4.2210907e+01 
-4.3632296e-01 9.6403313e-01 4.2186939e+01 
6.4036883e-02 6.3103610e-01 4.2261456e+01 
-5.3522192e-02 7.5605446e-01 4.2183796e+01 
-3.7873057e-01 8.2541841e-01 4.2124020e+01 
-3.1376252e-01 9.2360973e-01 4.2120819e+01 
4.4639236e-03 5.1760370e-01 4.2206776e+01 
-1.6659111e-01 8.4490943e-01 4.2108162e+01 
-1.4899719e-01 6.1065292e-01 4.2126286e+01 
-4.3632239e-01 9.6402961e-01 4.2054195e+01 
4.8639825e-01 3.0768004e-01 4.2343792e+01 
-2.6795524e-01 7.0293444e-01 4.2047943e+01 
2.4746621e-01 4.6040925e-01 4.2191032e+01 
7.1105182e-02 6.2650448e-01 4.2102463e+01 
-3.1255043e-01 9.2386365e-01 4.1987617e+01 
-4.8150036e-02 7.5403398e-01 4.2023121e+01 
-1.5144684e-02 5.2712250e-01 4.2060505e+01 
-3.7995064e-01 8.2661813e-01 4.1980038e+01 
2.0541981e-01 4.1251117e-01 4.2130333e+01 
-1.6306458e-01 8.4468329e-01 4.1945896e+01 
-4.3632182e-01 9.6402621e-01 4.1920536e+01 
-1.4500406e-01 6.0625184e-01 4.1961609e+01 
1.3375351e-01 5.6370503e-01 4.1969833e+01 
-2.6623246e-01 7.0021385e-01 4.1881653e+01 
-3.1132740e-01 9.2410773e-01 4.1853493e+01 
-3.9880505e-01 8.5261923e-01 4.1851868e+01 
4.9827534e-01 2.9925787e-01 4.2137547e+01 
3.4194937e-01 3.8685825e-01 4.2025021e+01 
-4.2648647e-02 7.5191063e-01 4.1859051e+01 
-2.5401810e-01 7.9503769e-01 4.1808533e+01 
1.8480448e-02 5.0547802e-01 4.1877510e+01 
-4.3632126e-01 9.6402287e-01 4.1785946e+01 
-1.5947884e-01 8.4443361e-01 4.1780174e+01 
-1.4089009e-01 6.0172999e-01 4.1793541e+01 
-3.1009343e-01 9.2434150e-01 4.1718426e+01 
-4.0306881e-01 8.5845691e-01 4.1716179e+01 
8.5861288e-02 6.1683756e-01 4.1774368e+01 
-2.6447710e-01 6.9743657e-01 4.1711910e+01 
3.0427080e-01 4.1638452e-01 4.1839512e+01 
2.6751360e-01 3.7833902e-01 4.1830902e+01 
5.1012677e-01 2.9080975e-01 4.1931297e+01 
-3.7014309e-02 7.4967718e-01 4.1691463e+01 
-4.3632072e-01 9.6401966e-01 4.1650398e+01 
2.5847588e-02 4.9913955e-01 4.1707767e+01 
-1.5583332e-01 8.4415752e-01 4.1610870e+01 
-3.8322043e-01 8.2981020e-01 4.1595791e+01 
-3.0884841e-01 9.2456430e-01 4.1582397e+01 
-1.3665022e-01 5.9708190e-01 4.1621960e+01 
9.3565010e-02 6.1167872e-01 4.1605015e+01 
-2.6268822e-01 6.9460052e-01 4.1538593e+01 
-4.3632022e-01 9.6401656e-01 4.1513885e+01 
-3.1243213e-02 7.4732590e-01 4.1520226e+01 
2.7603787e-01 3.7115356e-01 4.1624012e+01 
2.8505871e-01 4.3281260e-01 4.1611507e+01 
5.2195001e-01 2.8233302e-01 4.1725052e+01 
3.3468332e-02 4.9260557e-01 4.1534447e+01 
-3.9853087e-01 8.5081697e-01 4.1443768e+01 
-3.2560509e-01 9.3245691e-01 4.1443577e+01 
-1.5212752e-01 8.4385180e-01 4.1437847e+01 
-1.3227913e-01 5.9230179e-01 4.1446728e+01 
-4.3631971e-01 9.6401358e-01 4.1376381e+01 
[...]
POINT_DATA 6166
FIELD FieldData 5
DISPLACEMENT 3 6166  float
8.0939066e-01 7.3908144e-01 -2.2598920e-02 
8.0474496e-01 7.3439872e-01 -2.2417860e-02 
8.0938596e-01 7.3912907e-01 -2.5042154e-02 
8.0954731e-01 7.3917854e-01 -1.9769367e-02 
8.0241019e-01 7.3209524e-01 -2.4654359e-02 
8.0276740e-01 7.3234391e-01 -1.9471617e-02 
8.0007356e-01 7.2969007e-01 -2.2235775e-02 
8.0940908e-01 7.3918730e-01 -2.6669968e-02 
8.0963862e-01 7.3926371e-01 -1.9450124e-02 
8.0467308e-01 7.3441571e-01 -2.6588248e-02 
8.0475241e-01 7.3433799e-01 -1.9230504e-02 
7.9772443e-01 7.2737324e-01 -2.4526231e-02 
7.9756337e-01 7.2709882e-01 -1.9290648e-02 
7.9985684e-01 7.2956324e-01 -2.6505066e-02 
7.9537600e-01 7.2495502e-01 -2.2052651e-02 
8.0945033e-01 7.3924887e-01 -2.7602976e-02 
7.9978597e-01 7.2933131e-01 -1.9007314e-02 
8.0968648e-01 7.3932874e-01 -2.0230584e-02 
8.0218834e-01 7.3193210e-01 -2.7469905e-02 
8.0221653e-01 7.3179811e-01 -1.9888030e-02 
7.9301226e-01 7.2262466e-01 -2.4397234e-02 
7.9277873e-01 7.2227639e-01 -1.9116098e-02 
7.9495788e-01 7.2462749e-01 -2.6420306e-02 
7.9473674e-01 7.2424126e-01 -1.8780485e-02 
7.9065180e-01 7.2019327e-01 -2.1868477e-02 
7.9732943e-01 7.2703671e-01 -2.7390154e-02 
8.0952489e-01 7.3932624e-01 -2.7706403e-02 
7.9720789e-01 7.2674924e-01 -1.9675704e-02 
8.0971432e-01 7.3939198e-01 -2.1870580e-02 
7.8827327e-01 7.1784908e-01 -2.4267327e-02 
7.8835982e-01 7.1782619e-01 -1.9125482e-02 
7.8997362e-01 7.1960574e-01 -2.6333850e-02 
7.9978973e-01 7.2951680e-01 -2.7491301e-02 
7.9238653e-01 7.2205669e-01 -2.7308803e-02 
7.8960210e-01 7.1906519e-01 -1.8549945e-02 
7.9971176e-01 7.2931236e-01 -2.1606948e-02 
8.0403262e-01 7.3379058e-01 -2.7511997e-02 
7.9211521e-01 7.2161573e-01 -1.9460296e-02 
7.8590059e-01 7.1540427e-01 -2.1683250e-02 
8.0414307e-01 7.3379904e-01 -2.2716891e-02 
7.9538363e-01 7.2507834e-01 -2.7452396e-02 
7.9517812e-01 7.2473598e-01 -2.1119732e-02 
8.0960768e-01 7.3941332e-01 -2.7872020e-02 
8.0973047e-01 7.3945737e-01 -2.4158930e-02 
7.8350705e-01 7.1304619e-01 -2.4136513e-02 
7.8359526e-01 7.1302366e-01 -1.8925639e-02 
7.8490138e-01 7.1449548e-01 -2.6245587e-02 
7.8735691e-01 7.1698940e-01 -2.7225653e-02 
7.8437948e-01 7.1380049e-01 -1.8315524e-02 
7.8693569e-01 7.1639478e-01 -1.9241573e-02 
7.8112185e-01 7.1058774e-01 -2.1496790e-02 
7.8990698e-01 7.1955889e-01 -2.7282825e-02 
7.8952801e-01 7.1904826e-01 -2.1240881e-02 
7.9750824e-01 7.2722393e-01 -2.7723949e-02 
8.0404836e-01 7.3382163e-01 -2.8221045e-02 
8.0408782e-01 7.3380709e-01 -2.5686311e-02 
7.9730290e-01 7.2694576e-01 -2.4382066e-02 
7.7883768e-01 7.0823073e-01 -1.8843513e-02 
7.7871299e-01 7.0821542e-01 -2.4004620e-02 
7.8223795e-01 7.1183205e-01 -2.7140604e-02 
7.8534496e-01 7.1496338e-01 -2.7245095e-02 
7.7973843e-01 7.0929390e-01 -2.6155394e-02 
8.0967754e-01 7.3950332e-01 -2.8783476e-02 
8.0973607e-01 7.3952538e-01 -2.7060449e-02 
7.8166676e-01 7.1108389e-01 -1.9019743e-02 
7.8483844e-01 7.1431470e-01 -2.0737639e-02 
7.7906609e-01 7.0844460e-01 -1.8077387e-02 
7.7631527e-01 7.0574331e-01 -2.1309439e-02 
7.8755176e-01 7.1719146e-01 -2.7501510e-02 
7.7389097e-01 7.0335680e-01 -2.3872012e-02 
7.7398294e-01 7.0333523e-01 -1.8522041e-02 
7.7702683e-01 7.0658201e-01 -2.7053442e-02 
7.8704399e-01 7.1660811e-01 -2.4122696e-02 
7.7448189e-01 7.0399833e-01 -2.6063010e-02 
7.7967250e-01 7.0924658e-01 -2.7064448e-02 
7.7630574e-01 7.0568025e-01 -1.8794663e-02 
7.7365923e-01 7.0299447e-01 -1.7835012e-02 
7.7899200e-01 7.0842975e-01 -2.0867150e-02 
7.7148032e-01 7.0087045e-01 -2.1120835e-02 
8.0970031e-01 7.3958445e-01 -3.1490527e-02 
8.0174029e-01 7.3156345e-01 -3.1320747e-02 
7.6904029e-01 6.9846910e-01 -2.3738381e-02 
7.6913446e-01 6.9844836e-01 -1.8318137e-02 
7.7172071e-01 7.0123661e-01 -2.6963986e-02 
7.7441657e-01 7.0395088e-01 -2.6950944e-02 
7.7413684e-01 7.0352948e-01 -2.0346973e-02 
7.6912880e-01 6.9860584e-01 -2.5968196e-02 
7.7084976e-01 7.0018137e-01 -1.8566271e-02 
7.6661652e-01 6.9596899e-01 -2.0931138e-02 
7.9378021e-01 7.2354251e-01 -3.1150745e-02 
7.7602917e-01 7.0557749e-01 -2.7079605e-02 
7.6815593e-01 6.9744778e-01 -1.7588679e-02 
7.8142732e-01 7.1103644e-01 -2.8122831e-02 
7.8154212e-01 7.1111178e-01 -2.6227830e-02 
7.7642834e-01 7.0591158e-01 -2.3863804e-02 
7.6463538e-01 6.9390857e-01 -1.7862897e-02 
7.6416081e-01 6.9355297e-01 -2.3603287e-02 
7.6906413e-01 6.9855851e-01 -2.6834719e-02 
7.6631653e-01 6.9579273e-01 -2.6872203e-02 
7.8582054e-01 7.1552223e-01 -3.0980194e-02 
7.6367629e-01 6.9311339e-01 -2.5871497e-02 
7.6808178e-01 6.9743544e-01 -2.0485677e-02 
7.6529545e-01 6.9458395e-01 -1.8334018e-02 
7.6172376e-01 6.9103843e-01 -2.0740137e-02 
7.6255304e-01 6.9180095e-01 -1.7338164e-02 
7.7347338e-01 7.0302206e-01 -2.7959840e-02 
7.6416010e-01 6.9361937e-01 -2.6797870e-02 
7.5925171e-01 6.8860769e-01 -2.3467291e-02 
7.5948721e-01 6.8872017e-01 -1.7618459e-02 
7.6081109e-01 6.9024730e-01 -2.6777813e-02 
7.6305068e-01 6.9235820e-01 -1.9947061e-02 
7.7786165e-01 7.0750183e-01 -3.0808177e-02 
7.6654804e-01 6.9602871e-01 -2.7031232e-02 
7.5812095e-01 6.8751788e-01 -2.5772026e-02 
7.5680107e-01 6.8607831e-01 -2.0547787e-02 
7.5964034e-01 6.8888521e-01 -1.8098786e-02 
7.6543409e-01 6.9483513e-01 -2.3607206e-02 
7.5684726e-01 6.8605149e-01 -1.7083418e-02 
7.5431269e-01 6.8363255e-01 -2.3330128e-02 
7.5424516e-01 6.8343949e-01 -1.7461745e-02 
7.5805759e-01 6.8747085e-01 -2.6592549e-02 
7.5520134e-01 6.8459719e-01 -2.6680585e-02 
7.6990348e-01 6.9948316e-01 -3.0635905e-02 
7.5184840e-01 6.8108881e-01 -2.0354630e-02 
7.5677347e-01 6.8604177e-01 -2.0095823e-02 
7.5245965e-01 6.8181634e-01 -2.5669584e-02 
7.5388032e-01 6.8308187e-01 -1.7859392e-02 
7.5103599e-01 6.8019623e-01 -1.6824663e-02 
7.4934393e-01 6.7862785e-01 -2.3191474e-02 
7.4944609e-01 6.7860943e-01 -1.7489061e-02 
7.5296575e-01 6.8234336e-01 -2.6554892e-02 
7.5545388e-01 6.8485296e-01 -2.6782138e-02 
7.4948394e-01 6.7883939e-01 -2.6580006e-02 
7.5155485e-01 6.8077654e-01 -1.9537538e-02 
7.4686605e-01 6.7606974e-01 -2.0160709e-02 
7.6194841e-01 6.9146925e-01 -3.0463023e-02 
7.5403666e-01 6.8335420e-01 -2.3352159e-02 
7.4668932e-01 6.7600596e-01 -2.5564156e-02 
7.4801368e-01 6.7717147e-01 -1.7617332e-02 
7.4456227e-01 6.7369217e-01 -1.7379567e-02 
7.4434501e-01 6.7359424e-01 -2.3052353e-02 
7.4511611e-01 6.7423195e-01 -1.6561013e-02 
7.4662822e-01 6.7595911e-01 -2.6335619e-02 
7.4185306e-01 6.7102039e-01 -1.9965095e-02 
7.4365646e-01 6.7297167e-01 -2.6476072e-02 
7.4504292e-01 6.7422587e-01 -1.9698637e-02 
7.4080658e-01 6.7008299e-01 -2.5455529e-02 
7.4203712e-01 6.7115110e-01 -1.7370524e-02 
7.4962646e-01 6.7900068e-01 -2.7465632e-02 
7.5399697e-01 6.8346030e-01 -3.0289102e-02 
7.3931497e-01 6.6852850e-01 -2.2912087e-02 
7.3942119e-01 6.6851127e-01 -1.7067393e-02 
7.3908377e-01 6.6815597e-01 -1.6292563e-02 
7.4133718e-01 6.7063332e-01 -2.6297217e-02 
7.4393225e-01 6.7324960e-01 -2.6522154e-02 
7.3680896e-01 6.6594046e-01 -1.9768901e-02 
7.3771369e-01 6.6698879e-01 -2.6369434e-02 
7.3962557e-01 6.6876197e-01 -1.9119311e-02 
7.4221200e-01 6.7144728e-01 -2.3099897e-02 
7.3490006e-01 6.6395283e-01 -1.6636819e-02 
7.3952645e-01 6.6875088e-01 -2.3402490e-02 
7.3435217e-01 6.6352421e-01 -2.2412334e-02 
7.3480737e-01 6.6404372e-01 -2.5343575e-02 
7.3594499e-01 6.6501623e-01 -1.7120991e-02 
7.4604875e-01 6.7545426e-01 -3.0112473e-02 
7.3293531e-01 6.6196442e-01 -1.6020427e-02 
7.3173440e-01 6.6083091e-01 -1.9571424e-02 
7.3474795e-01 6.6399735e-01 -2.6063368e-02 
7.3165315e-01 6.6088790e-01 -2.6258567e-02 
7.2948641e-01 6.5850085e-01 -1.6329791e-02 
7.2916269e-01 6.5830743e-01 -2.2626346e-02 
7.3286164e-01 6.6196018e-01 -1.9293133e-02 
7.2868866e-01 6.5788513e-01 -2.5228821e-02 
7.2973472e-01 6.5876359e-01 -1.6866457e-02 
7.2662807e-01 6.5568984e-01 -1.9372227e-02 
7.3810458e-01 6.6745543e-01 -2.9935213e-02 
7.2666734e-01 6.5565354e-01 -1.5743287e-02 
7.3216265e-01 6.6140389e-01 -2.6416484e-02 
7.2863084e-01 6.5783894e-01 -2.5921147e-02 
7.2403848e-01 6.5315098e-01 -2.2481810e-02 
7.2547054e-01 6.5466559e-01 -2.6143201e-02 
7.2723222e-01 6.5628481e-01 -1.8691774e-02 
7.2394693e-01 6.5292519e-01 -1.6116370e-02 
7.2993112e-01 6.5908456e-01 -2.2850484e-02 
7.2244626e-01 6.5160334e-01 -2.5109548e-02 
7.2148865e-01 6.5051723e-01 -1.9171393e-02 
7.2340375e-01 6.5239114e-01 -1.6609631e-02 
7.2357851e-01 6.5275288e-01 -2.5702965e-02 
7.2027653e-01 6.4922136e-01 -1.5462027e-02 
7.1888214e-01 6.4796299e-01 -2.2335209e-02 
7.1899527e-01 6.4794779e-01 -1.6208466e-02 
7.3016870e-01 6.5946752e-01 -2.9756645e-02 
7.2581774e-01 6.5503150e-01 -2.6957007e-02 
7.1916330e-01 6.4831930e-01 -2.6023233e-02 
7.1731210e-01 6.4632446e-01 -1.9486250e-02 
7.2020257e-01 6.4921933e-01 -1.8880276e-02 
7.1631849e-01 6.4531559e-01 -1.8969847e-02 
7.1607774e-01 6.4519739e-01 -2.4983779e-02 
7.1694922e-01 6.4589578e-01 -1.6350713e-02 
7.1369439e-01 6.4274472e-01 -2.2187509e-02 
7.1377933e-01 6.4270264e-01 -1.6071787e-02 
7.1602118e-01 6.4515060e-01 -2.5618279e-02 
7.1375984e-01 6.4266527e-01 -1.5177114e-02 
7.1866584e-01 6.4782590e-01 -2.6372517e-02 
7.1841997e-01 6.4751959e-01 -2.3475830e-02 
7.2223580e-01 6.5148205e-01 -2.9574238e-02 
7.1272874e-01 6.4184695e-01 -2.5897903e-02 
7.1111637e-01 6.4008349e-01 -1.8768810e-02 
7.1368653e-01 6.4266491e-01 -1.8672731e-02 
7.0957971e-01 6.3866240e-01 -2.4854360e-02 
7.0918971e-01 6.3807994e-01 -1.5555031e-02 
7.0847672e-01 6.3749796e-01 -2.2037160e-02 
7.1036571e-01 6.3927454e-01 -1.6085228e-02 
7.0952481e-01 6.3861638e-01 -2.5461156e-02 
7.0711523e-01 6.3598198e-01 -1.4886640e-02 
7.0588541e-01 6.3482159e-01 -1.8566472e-02 
7.0616066e-01 6.3524354e-01 -2.5767600e-02 
7.1047986e-01 6.3953239e-01 -2.3220390e-02 
7.0990008e-01 6.3900375e-01 -2.5926504e-02 
7.1431297e-01 6.4351082e-01 -2.9390117e-02 
7.0704073e-01 6.3598245e-01 -1.8462557e-02 
7.0334584e-01 6.3220680e-01 -1.5554967e-02 
7.0315981e-01 6.3214302e-01 -2.1490091e-02 
7.0294642e-01 6.3199568e-01 -2.4721442e-02 
7.0365214e-01 6.3252467e-01 -1.5818160e-02 
7.0061988e-01 6.2952811e-01 -1.8361270e-02 
7.0388645e-01 6.3294643e-01 -2.5235018e-02 
7.0033669e-01 6.2916756e-01 -1.4592692e-02 
6.9945747e-01 6.2850660e-01 -2.5632281e-02 
6.9794428e-01 6.2691104e-01 -2.1735633e-02 
6.9806248e-01 6.2689781e-01 -1.5334155e-02 
7.0026201e-01 6.2916946e-01 -1.8251186e-02 
7.0293289e-01 6.3194984e-01 -2.3233183e-02 
7.0640218e-01 6.3555509e-01 -2.9204156e-02 
6.9617635e-01 6.2519276e-01 -2.4583209e-02 
7.0162946e-01 6.3069433e-01 -2.5937656e-02 
6.9532114e-01 6.2420446e-01 -1.8153157e-02 
6.9680321e-01 6.2564182e-01 -1.5547294e-02 
6.9692278e-01 6.2594873e-01 -2.5044972e-02 
6.9262713e-01 6.2157089e-01 -2.1581348e-02 
6.9274712e-01 6.2155998e-01 -1.5112109e-02 
6.9342101e-01 6.2221873e-01 -1.4293247e-02 
6.9261360e-01 6.2163144e-01 -2.5491845e-02 
6.9334614e-01 6.2222230e-01 -1.8038128e-02 
6.8998939e-01 6.1885059e-01 -1.7946299e-02 
6.9536167e-01 6.2433749e-01 -2.2753179e-02 
6.9850445e-01 6.2761635e-01 -2.9014686e-02 
6.8926281e-01 6.1824989e-01 -2.4439719e-02 
6.8981409e-01 6.1862218e-01 -1.5272493e-02 
6.9397032e-01 6.2300068e-01 -2.5817173e-02 
6.8727773e-01 6.1619908e-01 -2.1425294e-02 
6.8740010e-01 6.1619014e-01 -1.4889649e-02 
6.8965328e-01 6.1864763e-01 -2.4861317e-02 
6.8636274e-01 6.1513156e-01 -1.3988834e-02 
6.8462539e-01 6.1346418e-01 -1.7739810e-02 
6.8562365e-01 6.1461407e-01 -2.5345536e-02 
6.8628764e-01 6.1513567e-01 -1.7823521e-02 
6.8189681e-01 6.1079824e-01 -2.1268386e-02 
6.8201983e-01 6.1078739e-01 -1.4664438e-02 
6.8220079e-01 6.1116290e-01 -2.4291757e-02 
6.9062108e-01 6.1969566e-01 -2.8822156e-02 
6.8268019e-01 6.1146188e-01 -1.4993907e-02 
6.8642634e-01 6.1535954e-01 -2.2233862e-02 
6.8637347e-01 6.1537331e-01 -2.5708830e-02 
6.7922747e-01 6.0804653e-01 -1.7529016e-02 
6.8226278e-01 6.1122888e-01 -2.4671471e-02 
6.7915761e-01 6.0790163e-01 -1.3681034e-02 
6.7848444e-01 6.0745078e-01 -2.5191858e-02 
6.8018430e-01 6.0902107e-01 -1.8142968e-02 
6.7647880e-01 6.0536367e-01 -2.1110084e-02 
6.7660594e-01 6.0535783e-01 -1.4443018e-02 
6.7498726e-01 6.0392767e-01 -2.4136119e-02 
6.8275034e-01 6.1179173e-01 -2.8632989e-02 
6.7379612e-01 6.0260141e-01 -1.7322836e-02 
6.7539936e-01 6.0415769e-01 -1.4711507e-02 
6.7865509e-01 6.0762638e-01 -2.5498377e-02 
6.7787647e-01 6.0679024e-01 -2.2589507e-02 
6.7483485e-01 6.0377663e-01 -2.4481734e-02 
6.7103028e-01 5.9990185e-01 -2.0953055e-02 
6.7115653e-01 5.9989524e-01 -1.4218819e-02 
6.7180443e-01 6.0052663e-01 -1.3365701e-02 
6.7119187e-01 6.0013813e-01 -2.5031017e-02 
6.7284393e-01 6.0166568e-01 -1.8262662e-02 
6.6832948e-01 5.9712082e-01 -1.7113632e-02 
6.6762125e-01 5.9654272e-01 -2.3973830e-02 
6.6754383e-01 5.9634519e-01 -1.7749323e-02 
6.7489612e-01 6.0391212e-01 -2.8439958e-02 
6.6796637e-01 5.9670597e-01 -1.4425460e-02 
6.7100912e-01 5.9995443e-01 -2.5174521e-02 
6.6554695e-01 5.9440637e-01 -2.0788550e-02 
6.6567284e-01 5.9439713e-01 -1.3991849e-02 
6.6734105e-01 5.9626400e-01 -2.4299448e-02 
6.7008418e-01 5.9898031e-01 -2.2637947e-02 
6.6429532e-01 5.9300071e-01 -1.3048191e-02 
6.6283029e-01 5.9160882e-01 -1.6899325e-02 
6.6374046e-01 5.9267104e-01 -2.4864156e-02 
6.6522568e-01 5.9403270e-01 -1.8083485e-02 
6.6002715e-01 5.8887690e-01 -2.0627253e-02 
6.6015887e-01 5.8887291e-01 -1.3766061e-02 
6.6008717e-01 5.8899832e-01 -2.3803568e-02 
6.6705447e-01 5.9604841e-01 -2.8245030e-02 
6.6037577e-01 5.8910185e-01 -1.4136313e-02 
6.6333801e-01 5.9226543e-01 -2.4959063e-02 
6.5729505e-01 5.8606672e-01 -1.6688701e-02 
6.5975404e-01 5.8866453e-01 -2.4106853e-02 
6.6244733e-01 5.9133476e-01 -2.2783630e-02 
6.5623611e-01 5.8505666e-01 -1.9144835e-02 
6.5662581e-01 5.8532107e-01 -1.2721712e-02 
6.5612352e-01 5.8504462e-01 -2.4688385e-02 
6.5447426e-01 5.8332086e-01 -2.0464312e-02 
6.5736336e-01 5.8616412e-01 -1.8051052e-02 
6.5396142e-01 5.8266389e-01 -1.3233730e-02 
6.5238982e-01 5.8129412e-01 -2.3628743e-02 
6.5172338e-01 5.8049178e-01 -1.6474696e-02 
6.5923488e-01 5.8821559e-01 -2.8046012e-02 
6.5266716e-01 5.8139461e-01 -1.4249401e-02 
6.5539783e-01 5.8431494e-01 -2.4652338e-02 
6.5229559e-01 5.8119875e-01 -2.3962220e-02 
6.5506876e-01 5.8396161e-01 -2.3306243e-02 
6.4890283e-01 5.7774752e-01 -2.0275252e-02 
6.4903551e-01 5.7774258e-01 -1.3318302e-02 
6.4879149e-01 5.7748109e-01 -1.2392198e-02 
6.4837241e-01 5.7729059e-01 -2.4503971e-02 
6.4615655e-01 5.7492280e-01 -1.6263084e-02 
6.4798313e-01 5.7678044e-01 -1.7864509e-02 
6.4458424e-01 5.7348961e-01 -2.3448033e-02 
6.5144122e-01 5.8041596e-01 -2.7840804e-02 
6.4335293e-01 5.7219476e-01 -2.0069961e-02 
6.4348841e-01 5.7219338e-01 -1.3109785e-02 
6.4480823e-01 5.7352424e-01 -1.3486665e-02 
6.4728570e-01 5.7617575e-01 -2.3108432e-02 
6.4590925e-01 5.7482427e-01 -2.4438724e-02 
6.4316142e-01 5.7206631e-01 -2.3712138e-02 
6.4062655e-01 5.6939250e-01 -1.6055049e-02 
6.4099199e-01 5.6968123e-01 -1.2061113e-02 
6.4063132e-01 5.6955183e-01 -2.4325646e-02 
6.4068103e-01 5.6945497e-01 -1.6232604e-02 
6.3784367e-01 5.6668752e-01 -1.9862365e-02 
6.3769919e-01 5.6639892e-01 -1.2575796e-02 
6.3690585e-01 5.6581426e-01 -2.3267264e-02 
6.4366424e-01 5.7263917e-01 -2.7634926e-02 
6.3706410e-01 5.6578386e-01 -1.3122432e-02 
6.3513470e-01 5.6390429e-01 -1.5845224e-02 
6.3661605e-01 5.6552428e-01 -2.3589296e-02 
6.3882864e-01 5.6768805e-01 -2.0908944e-02 
6.3944429e-01 5.6837726e-01 -2.4933260e-02 
6.3618445e-01 5.6509334e-01 -2.3564307e-02 
6.3330716e-01 5.6200266e-01 -1.1741917e-02 
6.3236797e-01 5.6121743e-01 -1.9654453e-02 
6.3250488e-01 5.6121767e-01 -1.2699400e-02 
6.3301677e-01 5.6194079e-01 -2.4143478e-02 
6.3299960e-01 5.6177741e-01 -1.5793847e-02 
6.2968135e-01 5.5845988e-01 -1.5639778e-02 
6.2935299e-01 5.5826926e-01 -2.3081604e-02 
6.3590771e-01 5.6488979e-01 -2.7436079e-02 
6.2943786e-01 5.5816638e-01 -1.2768392e-02 
6.2772810e-01 5.5644190e-01 -1.2111979e-02 
6.2693691e-01 5.5579495e-01 -1.9445024e-02 
6.2906629e-01 5.5798101e-01 -2.3415713e-02 
6.3169926e-01 5.6063855e-01 -2.4733802e-02 
6.3176769e-01 5.6066924e-01 -2.2709571e-02 
6.2573910e-01 5.5444592e-01 -1.1429014e-02 
6.2880760e-01 5.5764866e-01 -1.9137671e-02 
6.2552518e-01 5.5446178e-01 -2.3959536e-02 
6.2427074e-01 5.5305642e-01 -1.5433959e-02 
6.2737173e-01 5.5628866e-01 -2.3323668e-02 
6.2543625e-01 5.5422413e-01 -1.5367519e-02 
6.2154114e-01 5.5040735e-01 -1.9239355e-02 
6.2192082e-01 5.5085403e-01 -2.2898441e-02 
6.2815928e-01 5.5714732e-01 -2.7222378e-02 
6.2192744e-01 5.5067110e-01 -1.2423357e-02 
6.2074190e-01 5.4946840e-01 -1.1766147e-02 
6.2163997e-01 5.5057174e-01 -2.3242762e-02 
6.1889070e-01 5.4769248e-01 -1.5232312e-02 
6.2396574e-01 5.5291206e-01 -2.4531772e-02 
6.2403154e-01 5.5294108e-01 -2.2508608e-02 
6.1828434e-01 5.4701191e-01 -1.1122053e-02 
6.1815512e-01 5.4711193e-01 -2.3774981e-02 
6.1618137e-01 5.4506499e-01 -1.9029468e-02 
6.1631966e-01 5.4506743e-01 -1.2100623e-02 
6.1981040e-01 5.4866284e-01 -1.8299347e-02 
6.1966431e-01 5.4859781e-01 -2.3103645e-02 
6.1798829e-01 5.4679418e-01 -1.4953253e-02 
6.1534089e-01 5.4415274e-01 -1.5091630e-02 
6.1461169e-01 5.4356897e-01 -2.2712484e-02 
6.1355323e-01 5.4237163e-01 -1.5032918e-02 
6.2043440e-01 5.4943347e-01 -2.7007766e-02 
6.1367500e-01 5.4241765e-01 -1.1057943e-02 
6.1453229e-01 5.4329729e-01 -1.2088353e-02 
6.1433607e-01 5.4329032e-01 -2.3070220e-02 
6.1626166e-01 5.4522902e-01 -2.4325220e-02 
6.1632419e-01 5.4525650e-01 -2.2306167e-02 
6.1086464e-01 5.3976971e-01 -1.8820498e-02 
6.1099684e-01 5.3976625e-01 -1.1907673e-02 
6.1082518e-01 5.3968734e-01 -1.6745701e-02 
6.1094016e-01 5.3969485e-01 -1.0827247e-02 
6.1098981e-01 5.3987014e-01 -1.7727284e-02 
6.1091059e-01 5.3989142e-01 -2.3585904e-02 
6.1212432e-01 5.4100829e-01 -1.8110678e-02 
6.1198521e-01 5.4094583e-01 -2.2880645e-02 
6.1065716e-01 5.3948748e-01 -1.4555428e-02 
6.0825694e-01 5.3709745e-01 -1.4830590e-02 
6.0837471e-01 5.3714079e-01 -1.0867249e-02 
6.0742283e-01 5.3640920e-01 -2.2518195e-02 
6.0624075e-01 5.3503692e-01 -1.1992244e-02 
6.0724431e-01 5.3604090e-01 -1.1759393e-02 
6.1273873e-01 5.4176229e-01 -2.6789755e-02 
6.0635775e-01 5.3520721e-01 -1.4797098e-02 
6.0558707e-01 5.3451294e-01 -1.8611342e-02 
6.0715687e-01 5.3614265e-01 -2.2902621e-02 
6.0858619e-01 5.3758645e-01 -2.4116389e-02 
6.0864586e-01 5.3761238e-01 -2.2101564e-02 
6.0300136e-01 5.3186816e-01 -1.4636966e-02 
6.0371196e-01 5.3250253e-01 -1.0536902e-02 
6.0377556e-01 5.3279179e-01 -2.3395732e-02 
6.0343486e-01 5.3229833e-01 -1.4155133e-02 
6.0446596e-01 5.3338438e-01 -1.7928338e-02 
6.0433304e-01 5.3332889e-01 -2.2661837e-02 
6.0035163e-01 5.2930450e-01 -1.8407075e-02 
6.0087430e-01 5.2976054e-01 -1.4894411e-02 
6.0048193e-01 5.2930629e-01 -1.1531653e-02 
6.0034841e-01 5.2937025e-01 -2.2330934e-02 
6.0006964e-01 5.2890104e-01 -1.1440253e-02 
6.0507399e-01 5.3413093e-01 -2.6567142e-02 
6.0008937e-01 5.2911055e-01 -2.2727475e-02 
5.9778345e-01 5.2668041e-01 -1.4439560e-02 
5.9789854e-01 5.2672106e-01 -1.0478461e-02 
5.9673673e-01 5.2569479e-01 -1.7611017e-02 
5.9676504e-01 5.2581775e-01 -2.3205370e-02 
5.9658921e-01 5.2541947e-01 -1.0254496e-02 
6.0094166e-01 5.2997899e-01 -2.3903828e-02 
6.0099882e-01 5.3000277e-01 -2.1892872e-02 
5.9584421e-01 5.2475822e-01 -1.4691900e-02 
5.9552222e-01 5.2447790e-01 -1.6780809e-02 
5.9514934e-01 5.2413434e-01 -1.8201396e-02 
5.9528166e-01 5.2413970e-01 -1.1343831e-02 
5.9631860e-01 5.2522171e-01 -1.3771996e-02 
5.9683299e-01 5.2579790e-01 -1.7736163e-02 
5.9670562e-01 5.2574521e-01 -2.2437159e-02 
5.9339160e-01 5.2245545e-01 -2.2138810e-02 
5.9260201e-01 5.2153558e-01 -1.4247198e-02 
5.9271729e-01 5.2157646e-01 -1.0291443e-02 
5.9300798e-01 5.2188736e-01 -1.1132365e-02 
5.9313321e-01 5.2219659e-01 -2.2561323e-02 
5.9743702e-01 5.2653342e-01 -2.6340907e-02 
5.8998585e-01 5.1900691e-01 -1.7997256e-02 
5.9012163e-01 5.1901603e-01 -1.1158788e-02 
5.8977813e-01 5.1876491e-01 -1.6195128e-02 
5.8986491e-01 5.1896465e-01 -2.3014525e-02 
5.8957291e-01 5.1845294e-01 -9.9718394e-03 
5.9332061e-01 5.2240270e-01 -2.3687894e-02 
5.9337580e-01 5.2242506e-01 -2.1681603e-02 
5.8745807e-01 5.1642942e-01 -1.4061507e-02 