# vtk DataFile Version 4.0
vtk output
ASCII
DATASET UNSTRUCTURED_GRID
POINTS 6166 float
-4.3633327e-01 9.6409470e-01 4.4200001e+01 
-4.3633261e-01 9.6409082e-01 4.4079685e+01 
-3.2145375e-01 9.1276109e-01 4.4200001e+01 
-3.8566181e-01 8.4097892e-01 4.4200001e+01 
-3.3069235e-01 9.1895354e-01 4.4019413e+01 
-3.8473952e-01 8.3919770e-01 4.4024357e+01 
-4.3633196e-01 9.6408689e-01 4.3958702e+01 
-2.1293370e-01 8.4677851e-01 4.4200001e+01 
-2.9042658e-01 7.3813015e-01 4.4200001e+01 
-2.1019450e-01 8.4669626e-01 4.4077393e+01 
-2.8909999e-01 7.3605996e-01 4.4073399e+01 
-3.2963324e-01 9.1929907e-01 4.3898094e+01 
-3.8679782e-01 8.4179753e-01 4.3889645e+01 
-2.0740938e-01 8.4661204e-01 4.3952713e+01 
-4.3633130e-01 9.6408290e-01 4.3837040e+01 
-1.1677200e-01 7.7521002e-01 4.4200001e+01 
-2.8775173e-01 7.3395580e-01 4.3944717e+01 
-1.9365783e-01 6.6203654e-01 4.4200001e+01 
-1.1309985e-01 7.7540898e-01 4.4012005e+01 
-1.9181472e-01 6.5888047e-01 4.4006447e+01 
-3.2856464e-01 9.1964108e-01 4.3776085e+01 
-3.8823184e-01 8.4352189e-01 4.3765770e+01 
-2.0457739e-01 8.4652513e-01 4.3825886e+01 
-2.8638119e-01 7.3181647e-01 4.3813885e+01 
-4.3633065e-01 9.6407896e-01 4.3714680e+01 
-1.0911675e-01 7.7426714e-01 4.3886200e+01 
-2.1001574e-02 6.8269837e-01 4.4200001e+01 
-1.8902887e-01 6.5566909e-01 4.3876659e+01 
-7.8887597e-02 5.9015810e-01 4.4200001e+01 
-3.2748649e-01 9.1997939e-01 4.3653378e+01 
-3.9889076e-01 8.5876143e-01 4.3651733e+01 
-2.0169757e-01 8.4643483e-01 4.3696846e+01 
-7.2496021e-03 6.7325598e-01 4.3947758e+01 
-1.0504345e-01 7.7307969e-01 4.3758209e+01 
-2.8498772e-01 7.2964084e-01 4.3680840e+01 
-6.3224643e-02 5.7783771e-01 4.3940754e+01 
3.5808440e-02 6.2679136e-01 4.4056572e+01 
-1.8616955e-01 6.5238589e-01 4.3744686e+01 
-4.3632996e-01 9.6407503e-01 4.3591618e+01 
-9.8678423e-03 5.4892725e-01 4.4055367e+01 
-1.8652271e-02 6.8798620e-01 4.3834026e+01 
-7.9845116e-02 5.8636194e-01 4.3823372e+01 
8.7777540e-02 5.7885915e-01 4.4200001e+01 
5.3622175e-02 5.1732427e-01 4.4200001e+01 
-3.2639861e-01 9.2031354e-01 4.3529953e+01 
-3.9894739e-01 8.5844576e-01 4.3528313e+01 
-1.9876897e-01 8.4634024e-01 4.3565521e+01 
-1.0087753e-01 7.7184403e-01 4.3627972e+01 
-2.8357074e-01 7.2742778e-01 4.3545506e+01 
-1.8323407e-01 6.4902818e-01 4.3610458e+01 
-4.3632931e-01 9.6407109e-01 4.3467831e+01 
3.1033519e-03 6.6751039e-01 4.3691772e+01 
-5.3600248e-02 5.6906003e-01 4.3676846e+01 
1.2436585e-01 5.5082864e-01 4.3886215e+01 
1.7079005e-01 5.1095647e-01 4.4054855e+01 
1.4951277e-01 4.6697062e-01 4.4053665e+01 
1.0028158e-01 4.8915190e-01 4.3877911e+01 
-4.0513036e-01 8.6722642e-01 4.3405304e+01 
-3.2530096e-01 9.2064321e-01 4.3405800e+01 
-9.6616447e-02 7.7055699e-01 4.3495411e+01 
-8.4563000e-03 6.8258613e-01 4.3574005e+01 
-1.9579062e-01 8.4624058e-01 4.3431831e+01 
2.1753120e-01 4.7335833e-01 4.4200001e+01 
2.0360756e-01 4.4289169e-01 4.4200001e+01 
-1.8021962e-01 6.4559317e-01 4.3473904e+01 
-7.0636064e-02 5.7773441e-01 4.3555408e+01 
-2.8212959e-01 7.2517604e-01 4.3407806e+01 
-4.3632865e-01 9.6406716e-01 4.3343307e+01 
1.3810426e-01 5.4143524e-01 4.3628246e+01 
-3.2419339e-01 9.2096806e-01 4.3280907e+01 
-3.9903235e-01 8.5775709e-01 4.3279266e+01 
-9.2257597e-02 7.6921552e-01 4.3360443e+01 
1.1508528e-01 4.7804743e-01 4.3612068e+01 
-1.9276154e-01 8.4613472e-01 4.3295704e+01 
1.4013666e-02 6.6131532e-01 4.3426643e+01 
-1.7712323e-01 6.4207786e-01 4.3334946e+01 
-2.8066361e-01 7.2288430e-01 4.3267666e+01 
-4.3382257e-02 5.5983055e-01 4.3403778e+01 
-4.3632799e-01 9.6406323e-01 4.3218033e+01 
3.7877345e-01 3.8273901e-01 4.4200001e+01 
3.9076596e-01 3.7443376e-01 4.3993755e+01 
-3.2307580e-01 9.2128778e-01 4.3155251e+01 
-3.9906058e-01 8.5738426e-01 4.3153610e+01 
-8.7798268e-02 7.6781619e-01 4.3222996e+01 
1.9689407e-02 6.5803534e-01 4.3290459e+01 
-6.0862999e-02 5.6866169e-01 4.3278019e+01 
-1.8968078e-01 8.4602165e-01 4.3157055e+01 
-1.7394182e-01 6.3847917e-01 4.3193501e+01 
-4.3632734e-01 9.6405929e-01 4.3091995e+01 
4.0275589e-01 3.6612594e-01 4.3787510e+01 
1.2304078e-01 5.5709994e-01 4.3330139e+01 
-2.7917209e-01 7.2055119e-01 4.3125000e+01 
2.5336364e-01 4.4907436e-01 4.3468094e+01 
2.3670304e-01 4.1684708e-01 4.3469433e+01 
1.3086085e-01 4.6634668e-01 4.3336948e+01 
-3.8351217e-01 8.3473074e-01 4.3036392e+01 
-3.2194808e-01 9.2160189e-01 4.3028820e+01 
2.5518833e-02 6.5462554e-01 4.3151749e+01 
-8.3235659e-02 7.6635528e-01 4.3082981e+01 
4.1474071e-01 3.5781288e-01 4.3581264e+01 
-1.8654740e-01 8.4590012e-01 4.3015797e+01 
-3.2522827e-02 5.5011308e-01 4.3120937e+01 
-1.7067213e-01 6.3479382e-01 4.3049488e+01 
-4.3632668e-01 9.6405542e-01 4.2965172e+01 
-2.7765438e-01 7.1817529e-01 4.2979721e+01 
2.6620242e-01 4.4011977e-01 4.3261948e+01 
1.3584816e-02 6.7044950e-01 4.3025066e+01 
-3.2081014e-01 9.2191011e-01 4.2901604e+01 
-3.8160574e-01 8.3169121e-01 4.2902863e+01 
-7.8566879e-02 7.6482886e-01 4.2940315e+01 
-5.0480481e-02 5.5910730e-01 4.2990566e+01 
4.2671782e-01 3.4949207e-01 4.3375019e+01 
1.6821145e-01 5.2049083e-01 4.3083881e+01 
-1.8336046e-01 8.4576881e-01 4.2871841e+01 
-4.3632606e-01 9.6405160e-01 4.2837555e+01 
-1.6731077e-01 6.3101834e-01 4.2902817e+01 
1.4768846e-01 4.5400122e-01 4.3051926e+01 
-2.7610970e-01 7.1575516e-01 4.2831745e+01 
-3.1966189e-01 9.2221189e-01 4.2773579e+01 
-3.8560396e-01 8.3684862e-01 4.2767078e+01 
3.7660085e-02 6.4738947e-01 4.2866421e+01 
-7.3788933e-02 7.6323271e-01 4.2794899e+01 
4.3868470e-01 3.4116083e-01 4.3168777e+01 
-4.3632543e-01 9.6404779e-01 4.2709122e+01 
-2.0968946e-02 5.3986710e-01 4.2827656e+01 
-1.8011902e-01 8.4562629e-01 4.2725094e+01 
-1.6385415e-01 6.2714905e-01 4.2753403e+01 
-2.7453732e-01 7.1328926e-01 4.2680973e+01 
-3.1850323e-01 9.2250693e-01 4.2644733e+01 
-3.9907700e-01 8.5570478e-01 4.2643101e+01 
2.5504474e-02 6.6361672e-01 4.2734810e+01 
1.8471870e-01 5.0880390e-01 4.2796177e+01 
-6.8898737e-02 7.6156229e-01 4.2646645e+01 
-3.9438177e-02 5.4903054e-01 4.2692345e+01 
-4.3632481e-01 9.6404403e-01 4.2579861e+01 
4.5063871e-01 3.3281663e-01 4.2962532e+01 
1.6565691e-01 4.4095638e-01 4.2756321e+01 
-1.7682223e-01 8.4547096e-01 4.2575459e+01 
-1.6029853e-01 6.2318206e-01 4.2601143e+01 
-4.0415615e-01 8.6278629e-01 4.2516582e+01 
-3.1733403e-01 9.2279470e-01 4.2515053e+01 
-2.7293649e-01 7.1077597e-01 4.2527313e+01 
5.0482783e-02 6.3954860e-01 4.2569923e+01 
-4.3632418e-01 9.6404034e-01 4.2449757e+01 
-6.3893095e-02 7.5981271e-01 4.2495445e+01 
-8.6617703e-03 5.2904755e-01 4.2523201e+01 
-1.7346917e-01 8.4530097e-01 4.2422829e+01 
-1.5663996e-01 6.1911333e-01 4.2445942e+01 
3.0435190e-01 4.1341871e-01 4.2643494e+01 
4.6257737e-01 3.2445681e-01 4.2756287e+01 
-3.1615424e-01 9.2307472e-01 4.2384518e+01 
-3.9902648e-01 8.5475212e-01 4.2382885e+01 
-2.7130640e-01 7.0821363e-01 4.2370659e+01 
3.8079392e-02 6.5619886e-01 4.2433029e+01 
2.0230262e-01 4.9620378e-01 4.2497147e+01 
-4.3632355e-01 9.6403670e-01 4.2318787e+01 
-5.8768708e-02 7.5797862e-01 4.2341198e+01 
-2.7680276e-02 5.3838593e-01 4.2382599e+01 
1.8486446e-01 4.2715022e-01 4.2449394e+01 
-3.8436696e-01 8.3356136e-01 4.2264896e+01 
8.9545198e-02 5.3233254e-01 4.2382050e+01 
-3.3225983e-01 9.3122375e-01 4.2255634e+01 
-1.7005907e-01 8.4511453e-01 4.2267101e+01 
-1.5287429e-01 6.1493850e-01 4.2287693e+01 
4.7449806e-01 3.1607881e-01 4.2550037e+01 
-2.6964626e-01 7.0560038e-01 4.2210907e+01 
-4.3632296e-01 9.6403313e-01 4.2186939e+01 
6.4036883e-02 6.3103610e-01 4.2261456e+01 
-5.3522192e-02 7.5605446e-01 4.2183796e+01 
-3.7873057e-01 8.2541841e-01 4.2124020e+01 
-3.1376252e-01 9.2360973e-01 4.2120819e+01 
4.4639236e-03 5.1760370e-01 4.2206776e+01 
-1.6659111e-01 8.4490943e-01 4.2108162e+01 
-1.4899719e-01 6.1065292e-01 4.2126286e+01 
-4.3632239e-01 9.6402961e-01 4.2054195e+01 
4.8639825e-01 3.0768004e-01 4.2343792e+01 
-2.6795524e-01 7.0293444e-01 4.2047943e+01 
2.4746621e-01 4.6040925e-01 4.2191032e+01 
7.1105182e-02 6.2650448e-01 4.2102463e+01 
-3.1255043e-01 9.2386365e-01 4.1987617e+01 
-4.8150036e-02 7.5403398e-01 4.2023121e+01 
-1.5144684e-02 5.2712250e-01 4.2060505e+01 
-3.7995064e-01 8.2661813e-01 4.1980038e+01 
2.0541981e-01 4.1251117e-01 4.2130333e+01 
-1.6306458e-01 8.4468329e-01 4.1945896e+01 
-4.3632182e-01 9.6402621e-01 4.1920536e+01 
-1.4500406e-01 6.0625184e-01 4.1961609e+01 
1.3375351e-01 5.6370503e-01 4.1969833e+01 
-2.6623246e-01 7.0021385e-01 4.1881653e+01 
-3.1132740e-01 9.2410773e-01 4.1853493e+01 
-3.9880505e-01 8.5261923e-01 4.1851868e+01 
4.9827534e-01 2.9925787e-01 4.2137547e+01 
3.4194937e-01 3.8685825e-01 4.2025021e+01 
-4.2648647e-02 7.5191063e-01 4.1859051e+01 
-2.5401810e-01 7.9503769e-01 4.1808533e+01 
1.8480448e-02 5.0547802e-01 4.1877510e+01 
-4.3632126e-01 9.6402287e-01 4.1785946e+01 
-1.5947884e-01 8.4443361e-01 4.1780174e+01 
-1.4089009e-01 6.0172999e-01 4.1793541e+01 
-3.1009343e-01 9.2434150e-01 4.1718426e+01 
-4.0306881e-01 8.5845691e-01 4.1716179e+01 
8.5861288e-02 6.1683756e-01 4.1774368e+01 
-2.6447710e-01 6.9743657e-01 4.1711910e+01 
3.0427080e-01 4.1638452e-01 4.1839512e+01 
2.6751360e-01 3.7833902e-01 4.1830902e+01 
5.1012677e-01 2.9080975e-01 4.1931297e+01 
-3.7014309e-02 7.4967718e-01 4.1691463e+01 
-4.3632072e-01 9.6401966e-01 4.1650398e+01 
2.5847588e-02 4.9913955e-01 4.1707767e+01 
-1.5583332e-01 8.4415752e-01 4.1610870e+01 
-3.8322043e-01 8.2981020e-01 4.1595791e+01 
-3.0884841e-01 9.2456430e-01 4.1582397e+01 
-1.3665022e-01 5.9708190e-01 4.1621960e+01 
9.3565010e-02 6.1167872e-01 4.1605015e+01 
-2.6268822e-01 6.9460052e-01 4.1538593e+01 
-4.3632022e-01 9.6401656e-01 4.1513885e+01 
-3.1243213e-02 7.4732590e-01 4.1520226e+01 
2.7603787e-01 3.7115356e-01 4.1624012e+01 
2.8505871e-01 4.3281260e-01 4.1611507e+01 
5.2195001e-01 2.8233302e-01 4.1725052e+01 
3.3468332e-02 4.9260557e-01 4.1534447e+01 
-3.9853087e-01 8.5081697e-01 4.1443768e+01 
-3.2560509e-01 9.3245691e-01 4.1443577e+01 
-1.5212752e-01 8.4385180e-01 4.1437847e+01 
-1.3227913e-01 5.9230179e-01 4.1446728e+01 
-4.3631971e-01 9.6401358e-01 4.1376381e+01 
[...]
POINT_DATA 6166
FIELD FieldData 5
DISPLACEMENT 3 6166  float
2.1241002e+00 1.9368680e+00 -1.5561686e-01 
2.1115382e+00 1.9242443e+00 -1.5429120e-01 
2.1237326e+00 1.9364727e+00 -1.6221815e-01 
2.1244504e+00 1.9372499e+00 -1.4798252e-01 
2.1048970e+00 1.9175458e+00 -1.5991472e-01 
2.1061158e+00 1.9188256e+00 -1.4595710e-01 
2.0989068e+00 1.9115506e+00 -1.5295811e-01 
2.1234744e+00 1.9361960e+00 -1.6661812e-01 
2.1244531e+00 1.9372561e+00 -1.4712644e-01 
2.1106589e+00 1.9233164e+00 -1.6554482e-01 
2.1112380e+00 1.9239764e+00 -1.4565305e-01 
2.0922227e+00 1.9048085e+00 -1.5872499e-01 
2.0920491e+00 1.9046894e+00 -1.4453138e-01 
2.0976262e+00 1.9102185e+00 -1.6445315e-01 
2.0862043e+00 1.8987858e+00 -1.5161748e-01 
2.1233125e+00 1.9360235e+00 -1.6914198e-01 
2.0978057e+00 1.9104786e+00 -1.4415556e-01 
2.1243107e+00 1.9371049e+00 -1.4923865e-01 
2.1036632e+00 1.9162760e+00 -1.6747528e-01 
2.1041083e+00 1.9168038e+00 -1.4696778e-01 
2.0794768e+00 1.8919995e+00 -1.5752819e-01 
2.0791149e+00 1.8916914e+00 -1.4319842e-01 
2.0843697e+00 1.8968956e+00 -1.6334234e-01 
2.0841498e+00 1.8967557e+00 -1.4263333e-01 
2.0734296e+00 1.8859485e+00 -1.5026926e-01 
2.0905120e+00 1.9030588e+00 -1.6638514e-01 
2.1232593e+00 1.9359690e+00 -1.6942668e-01 
2.0905583e+00 1.9031874e+00 -1.4549200e-01 
2.1240482e+00 1.9368240e+00 -1.5367189e-01 
2.0666580e+00 1.8791175e+00 -1.5632412e-01 
2.0671899e+00 1.8797063e+00 -1.4242986e-01 
2.0708821e+00 1.8833408e+00 -1.6221164e-01 
2.0968959e+00 1.9094740e+00 -1.6709219e-01 
2.0771332e+00 1.8896132e+00 -1.6527554e-01 
2.0702627e+00 1.8828011e+00 -1.4108576e-01 
2.0969579e+00 1.9095989e+00 -1.5115787e-01 
2.1082582e+00 1.9208937e+00 -1.6790749e-01 
2.0767806e+00 1.8893423e+00 -1.4399278e-01 
2.0605817e+00 1.8730378e+00 -1.4891338e-01 
2.1087790e+00 1.9214684e+00 -1.5495409e-01 
2.0850093e+00 1.8975275e+00 -1.6619542e-01 
2.0847495e+00 1.8973341e+00 -1.4902534e-01 
2.1231928e+00 1.9359006e+00 -1.6987996e-01 
2.1236935e+00 1.9364434e+00 -1.5985613e-01 
2.0537655e+00 1.8661617e+00 -1.5511288e-01 
2.0543067e+00 1.8667605e+00 -1.4103213e-01 
2.0571566e+00 1.8695471e+00 -1.6106027e-01 
2.0635200e+00 1.8759317e+00 -1.6414554e-01 
2.0561376e+00 1.8686073e+00 -1.3951190e-01 
2.0627677e+00 1.8752615e+00 -1.4246906e-01 
2.0476594e+00 1.8600529e+00 -1.4754933e-01 
2.0701425e+00 1.8825871e+00 -1.6474947e-01 
2.0693955e+00 1.8819015e+00 -1.4833474e-01 
2.0903730e+00 1.9029154e+00 -1.6729954e-01 
2.1079295e+00 1.9205559e+00 -1.6981713e-01 
2.1081462e+00 1.9208007e+00 -1.6296628e-01 
2.0899522e+00 1.9025284e+00 -1.5822060e-01 
2.0414557e+00 1.8538461e+00 -1.3995473e-01 
2.0407979e+00 1.8531307e+00 -1.5389366e-01 
2.0496645e+00 1.8620075e+00 -1.6299437e-01 
2.0578344e+00 1.8702170e+00 -1.6382794e-01 
2.0431855e+00 1.8555069e+00 -1.5988742e-01 
2.1230197e+00 1.9357171e+00 -1.7234761e-01 
2.1232512e+00 1.9359683e+00 -1.6769633e-01 
2.0485134e+00 1.8609380e+00 -1.4092094e-01 
2.0567670e+00 1.8692149e+00 -1.4613089e-01 
2.0417671e+00 1.8541675e+00 -1.3791183e-01 
2.0346618e+00 1.8469924e+00 -1.4617796e-01 
2.0634120e+00 1.8758200e+00 -1.6490549e-01 
2.0277545e+00 1.8400245e+00 -1.5266781e-01 
2.0283151e+00 1.8406439e+00 -1.3821128e-01 
2.0355597e+00 1.8478329e+00 -1.6182104e-01 
2.0621715e+00 1.8746099e+00 -1.5567231e-01 
2.0289612e+00 1.8412131e+00 -1.5869200e-01 
2.0424364e+00 1.8547435e+00 -1.6231689e-01 
2.0340095e+00 1.8463643e+00 -1.3934757e-01 
2.0271435e+00 1.8394736e+00 -1.3628355e-01 
2.0408792e+00 1.8532467e+00 -1.4542769e-01 
2.0215874e+00 1.8338555e+00 -1.4479825e-01 
2.1225982e+00 1.9352649e+00 -1.7966348e-01 
2.1010406e+00 1.9135989e+00 -1.7777112e-01 
2.0146337e+00 1.8268399e+00 -1.5143396e-01 
2.0152047e+00 1.8274705e+00 -1.3678786e-01 
2.0211976e+00 1.8334010e+00 -1.6062464e-01 
2.0282075e+00 1.8404449e+00 -1.6106425e-01 
2.0278046e+00 1.8401126e+00 -1.4314857e-01 
2.0144753e+00 1.8266577e+00 -1.5747289e-01 
2.0192487e+00 1.8315331e+00 -1.3774836e-01 
2.0084348e+00 1.8206410e+00 -1.4341058e-01 
2.0794830e+00 1.8919334e+00 -1.7587812e-01 
2.0322950e+00 1.8445511e+00 -1.6169292e-01 
2.0122592e+00 1.8245192e+00 -1.3462758e-01 
2.0465307e+00 1.8588471e+00 -1.6547520e-01 
2.0469258e+00 1.8592644e+00 -1.6036934e-01 
2.0334234e+00 1.8457208e+00 -1.5306152e-01 
2.0030038e+00 1.8152155e+00 -1.3474604e-01 
2.0014348e+00 1.8135786e+00 -1.5019135e-01 
2.0137177e+00 1.8258854e+00 -1.5978698e-01 
2.0065701e+00 1.8187032e+00 -1.5940456e-01 
2.0579269e+00 1.8702703e+00 -1.7398389e-01 
1.9997207e+00 1.8118327e+00 -1.5623109e-01 
2.0113499e+00 1.8235766e+00 -1.4243327e-01 
2.0042219e+00 1.8164364e+00 -1.3612139e-01 
1.9952039e+00 1.8073484e+00 -1.4201449e-01 
1.9971056e+00 1.8092948e+00 -1.3294263e-01 
2.0249887e+00 1.8371985e+00 -1.6360290e-01 
2.0004854e+00 1.8125889e+00 -1.5880705e-01 
1.9881557e+00 1.8002387e+00 -1.4894144e-01 
1.9890785e+00 1.8012266e+00 -1.3315938e-01 
1.9916686e+00 1.8037313e+00 -1.5815943e-01 
1.9978007e+00 1.8099679e+00 -1.4007317e-01 
2.0363748e+00 1.8486102e+00 -1.7208633e-01 
2.0065346e+00 1.8186644e+00 -1.5985358e-01 
1.9846879e+00 1.7967296e+00 -1.5496354e-01 
1.9818918e+00 1.7939757e+00 -1.4060964e-01 
1.9889221e+00 1.8010662e+00 -1.3446857e-01 
2.0036497e+00 1.8158041e+00 -1.5038952e-01 
1.9816737e+00 1.7937936e+00 -1.3122825e-01 
1.9747957e+00 1.7868183e+00 -1.4768295e-01 
1.9749129e+00 1.7869959e+00 -1.3179417e-01 
1.9839214e+00 1.7959490e+00 -1.5715283e-01 
1.9764849e+00 1.7884772e+00 -1.5688835e-01 
2.0148239e+00 1.8269533e+00 -1.7018814e-01 
1.9684987e+00 1.7805238e+00 -1.3919757e-01 
1.9807426e+00 1.7928282e+00 -1.3934584e-01 
1.9693685e+00 1.7813405e+00 -1.5366945e-01 
1.9733390e+00 1.7854140e+00 -1.3278615e-01 
1.9659567e+00 1.7780070e+00 -1.2948471e-01 
1.9613552e+00 1.7733179e+00 -1.4641565e-01 
1.9619659e+00 1.7739898e+00 -1.3100766e-01 
1.9701821e+00 1.7821451e+00 -1.5613763e-01 
1.9764915e+00 1.7884810e+00 -1.5718488e-01 
1.9610100e+00 1.7729325e+00 -1.5558922e-01 
1.9666883e+00 1.7787153e+00 -1.3689968e-01 
1.9550254e+00 1.7669917e+00 -1.3777867e-01 
1.9932822e+00 1.8053099e+00 -1.6828933e-01 
1.9727831e+00 1.7847935e+00 -1.4765057e-01 
1.9537542e+00 1.7656580e+00 -1.5234822e-01 
1.9574671e+00 1.7694724e+00 -1.3107799e-01 
1.9487709e+00 1.7607385e+00 -1.2983555e-01 
1.9478332e+00 1.7597396e+00 -1.4514247e-01 
1.9499459e+00 1.7619265e+00 -1.2770890e-01 
1.9529809e+00 1.7648687e+00 -1.5440440e-01 
1.9414691e+00 1.7533784e+00 -1.3635013e-01 
1.9452374e+00 1.7570915e+00 -1.5426223e-01 
1.9489924e+00 1.7609395e+00 -1.3616495e-01 
1.9378356e+00 1.7496716e+00 -1.5099888e-01 
1.9412981e+00 1.7532346e+00 -1.2933789e-01 
1.9604051e+00 1.7723135e+00 -1.5797786e-01 
1.9717509e+00 1.7836810e+00 -1.6638923e-01 
1.9342270e+00 1.7460747e+00 -1.4386058e-01 
1.9348578e+00 1.7467670e+00 -1.2806854e-01 
1.9336311e+00 1.7455446e+00 -1.2590086e-01 
1.9387035e+00 1.7505302e+00 -1.5335299e-01 
1.9452910e+00 1.7571434e+00 -1.5441196e-01 
1.9278289e+00 1.7396821e+00 -1.3491501e-01 
1.9291525e+00 1.7409396e+00 -1.5290755e-01 
1.9344025e+00 1.7462932e+00 -1.3362731e-01 
1.9407592e+00 1.7526311e+00 -1.4484477e-01 
1.9225997e+00 1.7344615e+00 -1.2609209e-01 
1.9337362e+00 1.7455746e+00 -1.4519018e-01 
1.9208554e+00 1.7326524e+00 -1.4162038e-01 
1.9216025e+00 1.7333716e+00 -1.4962044e-01 
1.9248163e+00 1.7366873e+00 -1.2757051e-01 
1.9502290e+00 1.7620611e+00 -1.6448370e-01 
1.9170022e+00 1.7288511e+00 -1.2406295e-01 
1.9141062e+00 1.7259061e+00 -1.3347183e-01 
1.9208201e+00 1.7325739e+00 -1.5153638e-01 
1.9127495e+00 1.7244692e+00 -1.5152130e-01 
1.9079484e+00 1.7197566e+00 -1.2429172e-01 
1.9067658e+00 1.7185035e+00 -1.4126861e-01 
1.9160221e+00 1.7278357e+00 -1.3288316e-01 
1.9050461e+00 1.7167498e+00 -1.4821400e-01 
1.9080150e+00 1.7198226e+00 -1.2576938e-01 
1.9002981e+00 1.7120453e+00 -1.3201903e-01 
1.9287190e+00 1.7404612e+00 -1.6257763e-01 
1.9000503e+00 1.7118359e+00 -1.2219094e-01 
1.9133462e+00 1.7250663e+00 -1.5201227e-01 
1.9042609e+00 1.7159473e+00 -1.5005526e-01 
1.8929054e+00 1.7045941e+00 -1.3996106e-01 
1.8960164e+00 1.7076718e+00 -1.5010178e-01 
1.9008608e+00 1.7126219e+00 -1.3024954e-01 
1.8929726e+00 1.7047273e+00 -1.2272342e-01 
1.9074987e+00 1.7192351e+00 -1.4196722e-01 
1.8881556e+00 1.6997958e+00 -1.4677396e-01 
1.8864003e+00 1.6980997e+00 -1.3055669e-01 
1.8908871e+00 1.7026343e+00 -1.2394180e-01 
1.8904405e+00 1.7020783e+00 -1.4855500e-01 
1.8827665e+00 1.6944937e+00 -1.2028756e-01 
1.8789583e+00 1.6905998e+00 -1.3864253e-01 
1.8796251e+00 1.6913307e+00 -1.2208927e-01 
1.9072322e+00 1.7188916e+00 -1.6067110e-01 
1.8959326e+00 1.7075775e+00 -1.5232997e-01 
1.8789467e+00 1.6905401e+00 -1.4864881e-01 
1.8746279e+00 1.6862836e+00 -1.3064730e-01 
1.8817585e+00 1.6934485e+00 -1.2950002e-01 
1.8724196e+00 1.6840755e+00 -1.2908795e-01 
1.8709246e+00 1.6825079e+00 -1.4529558e-01 
1.8734251e+00 1.6851141e+00 -1.2208797e-01 
1.8649265e+00 1.6765242e+00 -1.3731669e-01 
1.8655306e+00 1.6771945e+00 -1.2078939e-01 
1.8701280e+00 1.6816934e+00 -1.4697947e-01 
1.8651423e+00 1.6768168e+00 -1.1835360e-01 
1.8767021e+00 1.6882821e+00 -1.4947228e-01 
1.8761957e+00 1.6878086e+00 -1.4159441e-01 
1.8857547e+00 1.6973298e+00 -1.5875585e-01 
1.8615329e+00 1.6730688e+00 -1.4716046e-01 
1.8583527e+00 1.6699686e+00 -1.2761647e-01 
1.8641222e+00 1.6757580e+00 -1.2777518e-01 
1.8533441e+00 1.6648725e+00 -1.4378586e-01 
1.8530768e+00 1.6647099e+00 -1.1857180e-01 
1.8508145e+00 1.6623724e+00 -1.3597994e-01 
1.8556150e+00 1.6672555e+00 -1.2019544e-01 
1.8525437e+00 1.6640538e+00 -1.4539480e-01 
1.8471730e+00 1.6587980e+00 -1.1638412e-01 
1.8442084e+00 1.6557826e+00 -1.2613766e-01 
1.8437587e+00 1.6552447e+00 -1.4563648e-01 
1.8547090e+00 1.6662563e+00 -1.3948566e-01 
1.8530582e+00 1.6645659e+00 -1.4670238e-01 
1.8643070e+00 1.6758095e+00 -1.5683976e-01 
1.8461349e+00 1.6577222e+00 -1.2602118e-01 
1.8373101e+00 1.6488953e+00 -1.1753311e-01 
1.8364891e+00 1.6480094e+00 -1.3355494e-01 
1.8353980e+00 1.6468818e+00 -1.4224488e-01 
1.8374531e+00 1.6490494e+00 -1.1827784e-01 
1.8299711e+00 1.6415113e+00 -1.2464633e-01 
1.8372117e+00 1.6486831e+00 -1.4377494e-01 
1.8288417e+00 1.6404251e+00 -1.1438368e-01 
1.8256196e+00 1.6370610e+00 -1.4407721e-01 
1.8223288e+00 1.6338168e+00 -1.3329081e-01 
1.8230247e+00 1.6345835e+00 -1.1599731e-01 
1.8277884e+00 1.6393341e+00 -1.2424301e-01 
1.8342494e+00 1.6457417e+00 -1.3817412e-01 
1.8428929e+00 1.6543322e+00 -1.5492438e-01 
1.8170831e+00 1.6285249e+00 -1.4066732e-01 
1.8305935e+00 1.6420422e+00 -1.4525594e-01 
1.8156446e+00 1.6271601e+00 -1.2314267e-01 
1.8189256e+00 1.6304848e+00 -1.1632836e-01 
1.8183215e+00 1.6297524e+00 -1.4202029e-01 
1.8079494e+00 1.6194142e+00 -1.3192992e-01 
1.8086537e+00 1.6201946e+00 -1.1445449e-01 
1.8101406e+00 1.6216910e+00 -1.1234668e-01 
1.8071008e+00 1.6185050e+00 -1.4248155e-01 
1.8090713e+00 1.6205841e+00 -1.2243859e-01 
1.8012295e+00 1.6127273e+00 -1.2163839e-01 
1.8137983e+00 1.6252540e+00 -1.3553046e-01 
1.8215157e+00 1.6329019e+00 -1.5300518e-01 
1.7983811e+00 1.6097910e+00 -1.3905276e-01 
1.8000196e+00 1.6115520e+00 -1.1434610e-01 
1.8098400e+00 1.6212469e+00 -1.4356717e-01 
1.7934834e+00 1.6049269e+00 -1.3055997e-01 
1.7941977e+00 1.6057196e+00 -1.1290617e-01 
1.7986408e+00 1.6100392e+00 -1.4023249e-01 
1.7910545e+00 1.6025845e+00 -1.1027417e-01 
1.7867275e+00 1.5982068e+00 -1.2013094e-01 
1.7881877e+00 1.5995665e+00 -1.4084683e-01 
1.7899690e+00 1.6014582e+00 -1.2060715e-01 
1.7789327e+00 1.5903618e+00 -1.2918445e-01 
1.7796525e+00 1.5911567e+00 -1.1134609e-01 
1.7792785e+00 1.5906698e+00 -1.3740288e-01 
1.8001785e+00 1.6115223e+00 -1.5108320e-01 
1.7807229e+00 1.5922401e+00 -1.1233111e-01 
1.7896566e+00 1.6010811e+00 -1.3254167e-01 
1.7892536e+00 1.6006275e+00 -1.4192504e-01 
1.7721344e+00 1.5836033e+00 -1.1860766e-01 
1.7786392e+00 1.5900151e+00 -1.3840996e-01 
1.7715720e+00 1.5830933e+00 -1.0816981e-01 
1.7688726e+00 1.5802357e+00 -1.3916859e-01 
1.7733672e+00 1.5848372e+00 -1.2039040e-01 
1.7642817e+00 1.5757060e+00 -1.2779976e-01 
1.7650157e+00 1.5765208e+00 -1.0979334e-01 
1.7597680e+00 1.5711504e+00 -1.3570832e-01 
1.7788773e+00 1.5901885e+00 -1.4917575e-01 
1.7574513e+00 1.5689244e+00 -1.1709410e-01 
1.7610296e+00 1.5725412e+00 -1.1028352e-01 
1.7683721e+00 1.5797265e+00 -1.3999021e-01 
1.7664331e+00 1.5778291e+00 -1.3198882e-01 
1.7585677e+00 1.5699314e+00 -1.3658591e-01 
1.7495496e+00 1.5609772e+00 -1.2641658e-01 
1.7502840e+00 1.5617968e+00 -1.0822893e-01 
1.7516911e+00 1.5632126e+00 -1.0602272e-01 
1.7491442e+00 1.5605038e+00 -1.3744764e-01 
1.7534491e+00 1.5649107e+00 -1.1941799e-01 
1.7426736e+00 1.5541519e+00 -1.1556718e-01 
1.7398469e+00 1.5512286e+00 -1.3397337e-01 
1.7400442e+00 1.5515125e+00 -1.1713166e-01 
1.7576224e+00 1.5689223e+00 -1.4726403e-01 
1.7409261e+00 1.5524453e+00 -1.0820328e-01 
1.7477232e+00 1.5590708e+00 -1.3776642e-01 
1.7347245e+00 1.5461597e+00 -1.2500824e-01 
1.7354610e+00 1.5469782e+00 -1.0665213e-01 
1.7383225e+00 1.5496886e+00 -1.3477439e-01 
1.7453076e+00 1.5566951e+00 -1.3074400e-01 
1.7313894e+00 1.5429257e+00 -1.0384680e-01 
1.7278091e+00 1.5392960e+00 -1.1402313e-01 
1.7289873e+00 1.5403563e+00 -1.3568656e-01 
1.7328281e+00 1.5443031e+00 -1.1759367e-01 
1.7198013e+00 1.5312501e+00 -1.2360416e-01 
1.7205567e+00 1.5320895e+00 -1.0507690e-01 
1.7194732e+00 1.5308791e+00 -1.3219047e-01 
1.7364019e+00 1.5476990e+00 -1.4535248e-01 
1.7203972e+00 1.5319389e+00 -1.0609151e-01 
1.7269715e+00 1.5383269e+00 -1.3583383e-01 
1.7128482e+00 1.5243583e+00 -1.1248569e-01 
1.7178102e+00 1.5291965e+00 -1.3292162e-01 
1.7245905e+00 1.5359862e+00 -1.2979396e-01 
1.7093660e+00 1.5208544e+00 -1.1892417e-01 
1.7106562e+00 1.5222263e+00 -1.0162312e-01 
1.7083851e+00 1.5197812e+00 -1.3387641e-01 
1.7047896e+00 1.5162706e+00 -1.2219386e-01 
1.7115241e+00 1.5230263e+00 -1.1612881e-01 
1.7037636e+00 1.5153323e+00 -1.0255402e-01 
1.6986601e+00 1.5101007e+00 -1.3037150e-01 
1.6977888e+00 1.5093341e+00 -1.1093497e-01 
1.7152451e+00 1.5265632e+00 -1.4343873e-01 
1.6994672e+00 1.5110456e+00 -1.0504881e-01 
1.7055240e+00 1.5169158e+00 -1.3361377e-01 
1.6976801e+00 1.5090967e+00 -1.3122743e-01 
1.7045238e+00 1.5159408e+00 -1.2991172e-01 
1.6897318e+00 1.5012493e+00 -1.2071057e-01 
1.6904936e+00 1.5020939e+00 -1.0192677e-01 
1.6894797e+00 1.5010966e+00 -9.9367626e-02 
1.6874261e+00 1.4988694e+00 -1.3202399e-01 
1.6827443e+00 1.4943260e+00 -1.0939412e-01 
1.6861359e+00 1.4976918e+00 -1.1398774e-01 
1.6775563e+00 1.4890546e+00 -1.2852256e-01 
1.6941627e+00 1.5055220e+00 -1.4151986e-01 
1.6747358e+00 1.4862882e+00 -1.1918978e-01 
1.6755050e+00 1.4871414e+00 -1.0039965e-01 
1.6783154e+00 1.4899536e+00 -1.0162251e-01 
1.6834685e+00 1.4949335e+00 -1.2801814e-01 
1.6798449e+00 1.4912976e+00 -1.3137907e-01 
1.6729760e+00 1.4844642e+00 -1.2895998e-01 
1.6678004e+00 1.4794223e+00 -1.0787167e-01 
1.6684000e+00 1.4800768e+00 -9.7118467e-02 
1.6665047e+00 1.4780080e+00 -1.3019466e-01 
1.6666154e+00 1.4782531e+00 -1.0831328e-01 
1.6598511e+00 1.4714513e+00 -1.1767330e-01 
1.6598165e+00 1.4715028e+00 -9.7950943e-02 
1.6567996e+00 1.4683586e+00 -1.2669970e-01 
1.6731275e+00 1.4845449e+00 -1.3960634e-01 
1.6573936e+00 1.4691055e+00 -9.9295408e-02 
1.6529603e+00 1.4646344e+00 -1.0635332e-01 
1.6553093e+00 1.4668496e+00 -1.2749155e-01 
1.6608809e+00 1.4724537e+00 -1.2060928e-01 
1.6621600e+00 1.4736644e+00 -1.3158317e-01 
1.6538000e+00 1.4653465e+00 -1.2733336e-01 
1.6476318e+00 1.4593850e+00 -9.4926707e-02 
1.6450580e+00 1.4567155e+00 -1.1616278e-01 
1.6458293e+00 1.4575683e+00 -9.7390287e-02 
1.6459285e+00 1.4574937e+00 -1.2838048e-01 
1.6458756e+00 1.4575925e+00 -1.0579710e-01 
1.6382263e+00 1.4499646e+00 -1.0485675e-01 
1.6363859e+00 1.4480181e+00 -1.2488939e-01 
1.6521497e+00 1.4636418e+00 -1.3772091e-01 
1.6367928e+00 1.4485903e+00 -9.7022235e-02 
1.6328623e+00 1.4446665e+00 -9.4977453e-02 
1.6303886e+00 1.4421108e+00 -1.1465992e-01 
1.6349168e+00 1.4465264e+00 -1.2571400e-01 
1.6412134e+00 1.4527906e+00 -1.2969975e-01 
1.6414957e+00 1.4531026e+00 -1.2424286e-01 
1.6271825e+00 1.4390243e+00 -9.2777945e-02 
1.6339993e+00 1.4456915e+00 -1.1409280e-01 
1.6256880e+00 1.4373391e+00 -1.2658818e-01 
1.6236098e+00 1.4354084e+00 -1.0336902e-01 
1.6299642e+00 1.4415957e+00 -1.2515506e-01 
1.6254579e+00 1.4372689e+00 -1.0334096e-01 
1.6158159e+00 1.4276004e+00 -1.1317480e-01 
1.6163007e+00 1.4280298e+00 -1.2311299e-01 
1.6311994e+00 1.4427644e+00 -1.3579693e-01 
1.6165078e+00 1.4284065e+00 -9.4799519e-02 
1.6139766e+00 1.4258718e+00 -9.2842489e-02 
1.6148609e+00 1.4265673e+00 -1.2396565e-01 
1.6090769e+00 1.4209589e+00 -1.0190079e-01 
1.6203026e+00 1.4319532e+00 -1.2781416e-01 
1.6205771e+00 1.4322596e+00 -1.2236102e-01 
1.6070418e+00 1.4189969e+00 -9.0671480e-02 
1.6057792e+00 1.4175360e+00 -1.2482038e-01 
1.6013415e+00 1.4132146e+00 -1.1168845e-01 
1.6021113e+00 1.4140633e+00 -9.2993312e-02 
1.6097605e+00 1.4215853e+00 -1.1028062e-01 
1.6091250e+00 1.4208572e+00 -1.2323077e-01 
1.6053541e+00 1.4172791e+00 -1.0094465e-01 
1.5988570e+00 1.4107977e+00 -1.0089086e-01 
1.5965531e+00 1.4083972e+00 -1.2135607e-01 
1.5946604e+00 1.4066260e+00 -1.0044955e-01 
1.6103176e+00 1.4219691e+00 -1.3388066e-01 
1.5947701e+00 1.4067911e+00 -8.9716733e-02 
1.5965376e+00 1.4085524e+00 -9.2631057e-02 
1.5951400e+00 1.4069573e+00 -1.2224464e-01 
1.5994762e+00 1.4112400e+00 -1.2592942e-01 
1.5997410e+00 1.4115409e+00 -1.2048819e-01 
1.5869857e+00 1.3989574e+00 -1.1021607e-01 
1.5877360e+00 1.3997853e+00 -9.1564208e-02 
1.5866981e+00 1.3986897e+00 -1.0459287e-01 
1.5872029e+00 1.3992866e+00 -8.8622630e-02 
1.5868223e+00 1.3988007e+00 -1.0726208e-01 
1.5862149e+00 1.3980871e+00 -1.2306772e-01 
1.5889807e+00 1.4009441e+00 -1.0845555e-01 
1.5883672e+00 1.4002290e+00 -1.2131112e-01 
1.5855695e+00 1.3976233e+00 -9.8621525e-02 
1.5803572e+00 1.3924232e+00 -9.9000625e-02 
1.5804572e+00 1.3925802e+00 -8.8301100e-02 
1.5771347e+00 1.3891085e+00 -1.1960158e-01 
1.5749139e+00 1.3870533e+00 -9.0987116e-02 
1.5768608e+00 1.3890195e+00 -9.0503275e-02 
1.5895194e+00 1.4012948e+00 -1.3196793e-01 
1.5746090e+00 1.3867157e+00 -9.8566018e-02 
1.5727379e+00 1.3848060e+00 -1.0875124e-01 
1.5757594e+00 1.3877115e+00 -1.2056708e-01 
1.5787320e+00 1.3906410e+00 -1.2405100e-01 
1.5789883e+00 1.3909361e+00 -1.1862190e-01 
1.5661665e+00 1.3783411e+00 -9.7586937e-02 
1.5676825e+00 1.3799179e+00 -8.6613744e-02 
1.5669492e+00 1.3789681e+00 -1.2133633e-01 
1.5660838e+00 1.3782907e+00 -9.6313916e-02 
1.5682801e+00 1.3803887e+00 -1.0665924e-01 
1.5676862e+00 1.3796985e+00 -1.1941537e-01 
1.5586065e+00 1.3707873e+00 -1.0731232e-01 
1.5598276e+00 1.3720551e+00 -9.7901523e-02 
1.5593461e+00 1.3716198e+00 -8.8768654e-02 
1.5580293e+00 1.3701476e+00 -1.1789261e-01 
1.5574929e+00 1.3698013e+00 -8.8427961e-02 
1.5688101e+00 1.3807330e+00 -1.3005541e-01 
1.5566857e+00 1.3687824e+00 -1.1889120e-01 
1.5520802e+00 1.3643752e+00 -9.6172146e-02 
1.5521779e+00 1.3645294e+00 -8.5480504e-02 
1.5483154e+00 1.3605855e+00 -1.0452862e-01 
1.5480250e+00 1.3601918e+00 -1.1963266e-01 
1.5484490e+00 1.3608450e+00 -8.4650598e-02 
1.5580767e+00 1.3701411e+00 -1.2217458e-01 
1.5583254e+00 1.3704293e+00 -1.1675666e-01 
1.5462970e+00 1.3586372e+00 -9.6506782e-02 
1.5454875e+00 1.3578066e+00 -1.0209929e-01 
1.5445660e+00 1.3568736e+00 -1.0587820e-01 
1.5453091e+00 1.3577114e+00 -8.7386206e-02 
1.5468864e+00 1.3592622e+00 -9.4078094e-02 
1.5476536e+00 1.3599409e+00 -1.0484742e-01 
1.5470773e+00 1.3592638e+00 -1.1751336e-01 
1.5392464e+00 1.3515276e+00 -1.1619642e-01 
1.5380939e+00 1.3505261e+00 -9.4781309e-02 
1.5381941e+00 1.3506826e+00 -8.4106483e-02 
1.5384361e+00 1.3509294e+00 -8.6411096e-02 
1.5379144e+00 1.3501725e+00 -1.1726616e-01 
1.5481808e+00 1.3602676e+00 -1.2814413e-01 
1.5306327e+00 1.3430771e+00 -1.0445850e-01 
1.5313833e+00 1.3439208e+00 -8.6021788e-02 
1.5298703e+00 1.3423413e+00 -9.9546313e-02 
1.5294039e+00 1.3417463e+00 -1.1795328e-01 
1.5295098e+00 1.3420925e+00 -8.2710952e-02 
1.5374895e+00 1.3497308e+00 -1.2029897e-01 
1.5377321e+00 1.3500135e+00 -1.1489461e-01 
1.5242106e+00 1.3367816e+00 -9.3418531e-02 