# vtk DataFile Version 4.0
vtk output
ASCII
DATASET UNSTRUCTURED_GRID
POINTS 6166 float
-4.3633327e-01 9.6409470e-01 4.4200001e+01 
-4.3633261e-01 9.6409082e-01 4.4079685e+01 
-3.2145375e-01 9.1276109e-01 4.4200001e+01 
-3.8566181e-01 8.4097892e-01 4.4200001e+01 
-3.3069235e-01 9.1895354e-01 4.4019413e+01 
-3.8473952e-01 8.3919770e-01 4.4024357e+01 
-4.3633196e-01 9.6408689e-01 4.3958702e+01 
-2.1293370e-01 8.4677851e-01 4.4200001e+01 
-2.9042658e-01 7.3813015e-01 4.4200001e+01 
-2.1019450e-01 8.4669626e-01 4.4077393e+01 
-2.8909999e-01 7.3605996e-01 4.4073399e+01 
-3.2963324e-01 9.1929907e-01 4.3898094e+01 
-3.8679782e-01 8.4179753e-01 4.3889645e+01 
-2.0740938e-01 8.4661204e-01 4.3952713e+01 
-4.3633130e-01 9.6408290e-01 4.3837040e+01 
-1.1677200e-01 7.7521002e-01 4.4200001e+01 
-2.8775173e-01 7.3395580e-01 4.3944717e+01 
-1.9365783e-01 6.6203654e-01 4.4200001e+01 
-1.1309985e-01 7.7540898e-01 4.4012005e+01 
-1.9181472e-01 6.5888047e-01 4.4006447e+01 
-3.2856464e-01 9.1964108e-01 4.3776085e+01 
-3.8823184e-01 8.4352189e-01 4.3765770e+01 
-2.0457739e-01 8.4652513e-01 4.3825886e+01 
-2.8638119e-01 7.3181647e-01 4.3813885e+01 
-4.3633065e-01 9.6407896e-01 4.3714680e+01 
-1.0911675e-01 7.7426714e-01 4.3886200e+01 
-2.1001574e-02 6.8269837e-01 4.4200001e+01 
-1.8902887e-01 6.5566909e-01 4.3876659e+01 
-7.8887597e-02 5.9015810e-01 4.4200001e+01 
-3.2748649e-01 9.1997939e-01 4.3653378e+01 
-3.9889076e-01 8.5876143e-01 4.3651733e+01 
-2.0169757e-01 8.4643483e-01 4.3696846e+01 
-7.2496021e-03 6.7325598e-01 4.3947758e+01 
-1.0504345e-01 7.7307969e-01 4.3758209e+01 
-2.8498772e-01 7.2964084e-01 4.3680840e+01 
-6.3224643e-02 5.7783771e-01 4.3940754e+01 
3.5808440e-02 6.2679136e-01 4.4056572e+01 
-1.8616955e-01 6.5238589e-01 4.3744686e+01 
-4.3632996e-01 9.6407503e-01 4.3591618e+01 
-9.8678423e-03 5.4892725e-01 4.4055367e+01 
-1.8652271e-02 6.8798620e-01 4.3834026e+01 
-7.9845116e-02 5.8636194e-01 4.3823372e+01 
8.7777540e-02 5.7885915e-01 4.4200001e+01 
5.3622175e-02 5.1732427e-01 4.4200001e+01 
-3.2639861e-01 9.2031354e-01 4.3529953e+01 
-3.9894739e-01 8.5844576e-01 4.3528313e+01 
-1.9876897e-01 8.4634024e-01 4.3565521e+01 
-1.0087753e-01 7.7184403e-01 4.3627972e+01 
-2.8357074e-01 7.2742778e-01 4.3545506e+01 
-1.8323407e-01 6.4902818e-01 4.3610458e+01 
-4.3632931e-01 9.6407109e-01 4.3467831e+01 
3.1033519e-03 6.6751039e-01 4.3691772e+01 
-5.3600248e-02 5.6906003e-01 4.3676846e+01 
1.2436585e-01 5.5082864e-01 4.3886215e+01 
1.7079005e-01 5.1095647e-01 4.4054855e+01 
1.4951277e-01 4.6697062e-01 4.4053665e+01 
1.0028158e-01 4.8915190e-01 4.3877911e+01 
-4.0513036e-01 8.6722642e-01 4.3405304e+01 
-3.2530096e-01 9.2064321e-01 4.3405800e+01 
-9.6616447e-02 7.7055699e-01 4.3495411e+01 
-8.4563000e-03 6.8258613e-01 4.3574005e+01 
-1.9579062e-01 8.4624058e-01 4.3431831e+01 
2.1753120e-01 4.7335833e-01 4.4200001e+01 
2.0360756e-01 4.4289169e-01 4.4200001e+01 
-1.8021962e-01 6.4559317e-01 4.3473904e+01 
-7.0636064e-02 5.7773441e-01 4.3555408e+01 
-2.8212959e-01 7.2517604e-01 4.3407806e+01 
-4.3632865e-01 9.6406716e-01 4.3343307e+01 
1.3810426e-01 5.4143524e-01 4.3628246e+01 
-3.2419339e-01 9.2096806e-01 4.3280907e+01 
-3.9903235e-01 8.5775709e-01 4.3279266e+01 
-9.2257597e-02 7.6921552e-01 4.3360443e+01 
1.1508528e-01 4.7804743e-01 4.3612068e+01 
-1.9276154e-01 8.4613472e-01 4.3295704e+01 
1.4013666e-02 6.6131532e-01 4.3426643e+01 
-1.7712323e-01 6.4207786e-01 4.3334946e+01 
-2.8066361e-01 7.2288430e-01 4.3267666e+01 
-4.3382257e-02 5.5983055e-01 4.3403778e+01 
-4.3632799e-01 9.6406323e-01 4.3218033e+01 
3.7877345e-01 3.8273901e-01 4.4200001e+01 
3.9076596e-01 3.7443376e-01 4.3993755e+01 
-3.2307580e-01 9.2128778e-01 4.3155251e+01 
-3.9906058e-01 8.5738426e-01 4.3153610e+01 
-8.7798268e-02 7.6781619e-01 4.3222996e+01 
1.9689407e-02 6.5803534e-01 4.3290459e+01 
-6.0862999e-02 5.6866169e-01 4.3278019e+01 
-1.8968078e-01 8.4602165e-01 4.3157055e+01 
-1.7394182e-01 6.3847917e-01 4.3193501e+01 
-4.3632734e-01 9.6405929e-01 4.3091995e+01 
4.0275589e-01 3.6612594e-01 4.3787510e+01 
1.2304078e-01 5.5709994e-01 4.3330139e+01 
-2.7917209e-01 7.2055119e-01 4.3125000e+01 
2.5336364e-01 4.4907436e-01 4.3468094e+01 
2.3670304e-01 4.1684708e-01 4.3469433e+01 
1.3086085e-01 4.6634668e-01 4.3336948e+01 
-3.8351217e-01 8.3473074e-01 4.3036392e+01 
-3.2194808e-01 9.2160189e-01 4.3028820e+01 
2.5518833e-02 6.5462554e-01 4.3151749e+01 
-8.3235659e-02 7.6635528e-01 4.3082981e+01 
4.1474071e-01 3.5781288e-01 4.3581264e+01 
-1.8654740e-01 8.4590012e-01 4.3015797e+01 
-3.2522827e-02 5.5011308e-01 4.3120937e+01 
-1.7067213e-01 6.3479382e-01 4.3049488e+01 
-4.3632668e-01 9.6405542e-01 4.2965172e+01 
-2.7765438e-01 7.1817529e-01 4.2979721e+01 
2.6620242e-01 4.4011977e-01 4.3261948e+01 
1.3584816e-02 6.7044950e-01 4.3025066e+01 
-3.2081014e-01 9.2191011e-01 4.2901604e+01 
-3.8160574e-01 8.3169121e-01 4.2902863e+01 
-7.8566879e-02 7.6482886e-01 4.2940315e+01 
-5.0480481e-02 5.5910730e-01 4.2990566e+01 
4.2671782e-01 3.4949207e-01 4.3375019e+01 
1.6821145e-01 5.2049083e-01 4.3083881e+01 
-1.8336046e-01 8.4576881e-01 4.2871841e+01 
-4.3632606e-01 9.6405160e-01 4.2837555e+01 
-1.6731077e-01 6.3101834e-01 4.2902817e+01 
1.4768846e-01 4.5400122e-01 4.3051926e+01 
-2.7610970e-01 7.1575516e-01 4.2831745e+01 
-3.1966189e-01 9.2221189e-01 4.2773579e+01 
-3.8560396e-01 8.3684862e-01 4.2767078e+01 
3.7660085e-02 6.4738947e-01 4.2866421e+01 
-7.3788933e-02 7.6323271e-01 4.2794899e+01 
4.3868470e-01 3.4116083e-01 4.3168777e+01 
-4.3632543e-01 9.6404779e-01 4.2709122e+01 
-2.0968946e-02 5.3986710e-01 4.2827656e+01 
-1.8011902e-01 8.4562629e-01 4.2725094e+01 
-1.6385415e-01 6.2714905e-01 4.2753403e+01 
-2.7453732e-01 7.1328926e-01 4.2680973e+01 
-3.1850323e-01 9.2250693e-01 4.2644733e+01 
-3.9907700e-01 8.5570478e-01 4.2643101e+01 
2.5504474e-02 6.6361672e-01 4.2734810e+01 
1.8471870e-01 5.0880390e-01 4.2796177e+01 
-6.8898737e-02 7.6156229e-01 4.2646645e+01 
-3.9438177e-02 5.4903054e-01 4.2692345e+01 
-4.3632481e-01 9.6404403e-01 4.2579861e+01 
4.5063871e-01 3.3281663e-01 4.2962532e+01 
1.6565691e-01 4.4095638e-01 4.2756321e+01 
-1.7682223e-01 8.4547096e-01 4.2575459e+01 
-1.6029853e-01 6.2318206e-01 4.2601143e+01 
-4.0415615e-01 8.6278629e-01 4.2516582e+01 
-3.1733403e-01 9.2279470e-01 4.2515053e+01 
-2.7293649e-01 7.1077597e-01 4.2527313e+01 
5.0482783e-02 6.3954860e-01 4.2569923e+01 
-4.3632418e-01 9.6404034e-01 4.2449757e+01 
-6.3893095e-02 7.5981271e-01 4.2495445e+01 
-8.6617703e-03 5.2904755e-01 4.2523201e+01 
-1.7346917e-01 8.4530097e-01 4.2422829e+01 
-1.5663996e-01 6.1911333e-01 4.2445942e+01 
3.0435190e-01 4.1341871e-01 4.2643494e+01 
4.6257737e-01 3.2445681e-01 4.2756287e+01 
-3.1615424e-01 9.2307472e-01 4.2384518e+01 
-3.9902648e-01 8.5475212e-01 4.2382885e+01 
-2.7130640e-01 7.0821363e-01 4.2370659e+01 
3.8079392e-02 6.5619886e-01 4.2433029e+01 
2.0230262e-01 4.9620378e-01 4.2497147e+01 
-4.3632355e-01 9.6403670e-01 4.2318787e+01 
-5.8768708e-02 7.5797862e-01 4.2341198e+01 
-2.7680276e-02 5.3838593e-01 4.2382599e+01 
1.8486446e-01 4.2715022e-01 4.2449394e+01 
-3.8436696e-01 8.3356136e-01 4.2264896e+01 
8.9545198e-02 5.3233254e-01 4.2382050e+01 
-3.3225983e-01 9.3122375e-01 4.2255634e+01 
-1.7005907e-01 8.4511453e-01 4.2267101e+01 
-1.5287429e-01 6.1493850e-01 4.2287693e+01 
4.7449806e-01 3.1607881e-01 4.2550037e+01 
-2.6964626e-01 7.0560038e-01 4.2210907e+01 
-4.3632296e-01 9.6403313e-01 4.2186939e+01 
6.4036883e-02 6.3103610e-01 4.2261456e+01 
-5.3522192e-02 7.5605446e-01 4.2183796e+01 
-3.7873057e-01 8.2541841e-01 4.2124020e+01 
-3.1376252e-01 9.2360973e-01 4.2120819e+01 
4.4639236e-03 5.1760370e-01 4.2206776e+01 
-1.6659111e-01 8.4490943e-01 4.2108162e+01 
-1.4899719e-01 6.1065292e-01 4.2126286e+01 
-4.3632239e-01 9.6402961e-01 4.2054195e+01 
4.8639825e-01 3.0768004e-01 4.2343792e+01 
-2.6795524e-01 7.0293444e-01 4.2047943e+01 
2.4746621e-01 4.6040925e-01 4.2191032e+01 
7.1105182e-02 6.2650448e-01 4.2102463e+01 
-3.1255043e-01 9.2386365e-01 4.1987617e+01 
-4.8150036e-02 7.5403398e-01 4.2023121e+01 
-1.5144684e-02 5.2712250e-01 4.2060505e+01 
-3.7995064e-01 8.2661813e-01 4.1980038e+01 
2.0541981e-01 4.1251117e-01 4.2130333e+01 
-1.6306458e-01 8.4468329e-01 4.1945896e+01 
-4.3632182e-01 9.6402621e-01 4.1920536e+01 
-1.4500406e-01 6.0625184e-01 4.1961609e+01 
1.3375351e-01 5.6370503e-01 4.1969833e+01 
-2.6623246e-01 7.0021385e-01 4.1881653e+01 
-3.1132740e-01 9.2410773e-01 4.1853493e+01 
-3.9880505e-01 8.5261923e-01 4.1851868e+01 
4.9827534e-01 2.9925787e-01 4.2137547e+01 
3.4194937e-01 3.8685825e-01 4.2025021e+01 
-4.2648647e-02 7.5191063e-01 4.1859051e+01 
-2.5401810e-01 7.9503769e-01 4.1808533e+01 
1.8480448e-02 5.0547802e-01 4.1877510e+01 
-4.3632126e-01 9.6402287e-01 4.1785946e+01 
-1.5947884e-01 8.4443361e-01 4.1780174e+01 
-1.4089009e-01 6.0172999e-01 4.1793541e+01 
-3.1009343e-01 9.2434150e-01 4.1718426e+01 
-4.0306881e-01 8.5845691e-01 4.1716179e+01 
8.5861288e-02 6.1683756e-01 4.1774368e+01 
-2.6447710e-01 6.9743657e-01 4.1711910e+01 
3.0427080e-01 4.1638452e-01 4.1839512e+01 
2.6751360e-01 3.7833902e-01 4.1830902e+01 
5.1012677e-01 2.9080975e-01 4.1931297e+01 
-3.7014309e-02 7.4967718e-01 4.1691463e+01 
-4.3632072e-01 9.6401966e-01 4.1650398e+01 
2.5847588e-02 4.9913955e-01 4.1707767e+01 
-1.5583332e-01 8.4415752e-01 4.1610870e+01 
-3.8322043e-01 8.2981020e-01 4.1595791e+01 
-3.0884841e-01 9.2456430e-01 4.1582397e+01 
-1.3665022e-01 5.9708190e-01 4.1621960e+01 
9.3565010e-02 6.1167872e-01 4.1605015e+01 
-2.6268822e-01 6.9460052e-01 4.1538593e+01 
-4.3632022e-01 9.6401656e-01 4.1513885e+01 
-3.1243213e-02 7.4732590e-01 4.1520226e+01 
2.7603787e-01 3.7115356e-01 4.1624012e+01 
2.8505871e-01 4.3281260e-01 4.1611507e+01 
5.2195001e-01 2.8233302e-01 4.1725052e+01 
3.3468332e-02 4.9260557e-01 4.1534447e+01 
-3.9853087e-01 8.5081697e-01 4.1443768e+01 
-3.2560509e-01 9.3245691e-01 4.1443577e+01 
-1.5212752e-01 8.4385180e-01 4.1437847e+01 
-1.3227913e-01 5.9230179e-01 4.1446728e+01 
-4.3631971e-01 9.6401358e-01 4.1376381e+01 
[...]
POINT_DATA 6166
FIELD FieldData 5
DISPLACEMENT 3 6166  float
-2.3939306e-01 -2.2073172e-01 -2.5635972e-03 
-2.3778194e-01 -2.1910603e-01 -2.5418394e-03 
-2.3932086e-01 -2.2056295e-01 -1.7155563e-03 
-2.3919953e-01 -2.2064801e-01 -3.5450847e-03 
-2.3691185e-01 -2.1813668e-01 -1.7231801e-03 
-2.3684479e-01 -2.1827328e-01 -3.5249123e-03 
-2.3616186e-01 -2.1747129e-01 -2.5199743e-03 
-2.3922451e-01 -2.2040185e-01 -1.1504561e-03 
-2.3904262e-01 -2.2050251e-01 -3.6554968e-03 
-2.3758289e-01 -2.1874136e-01 -1.0926119e-03 
-2.3734418e-01 -2.1878985e-01 -3.6426906e-03 
-2.3528789e-01 -2.1649593e-01 -1.6823469e-03 
-2.3504493e-01 -2.1645620e-01 -3.4930361e-03 
-2.3591344e-01 -2.1705273e-01 -1.0338135e-03 
-2.3453259e-01 -2.1582730e-01 -2.4979976e-03 
-2.3911802e-01 -2.2025789e-01 -8.2645629e-04 
-2.3561783e-01 -2.1704900e-01 -3.6296642e-03 
-2.3892890e-01 -2.2035727e-01 -3.3843841e-03 
-2.3660140e-01 -2.1771263e-01 -7.4046227e-04 
-2.3633231e-01 -2.1773922e-01 -3.3671528e-03 
-2.3365471e-01 -2.1484588e-01 -1.6413333e-03 
-2.3338878e-01 -2.1478456e-01 -3.4665593e-03 
-2.3421524e-01 -2.1533510e-01 -9.7404997e-04 
-2.3386270e-01 -2.1527912e-01 -3.6163959e-03 
-2.3289402e-01 -2.1417394e-01 -2.4758980e-03 
-2.3491532e-01 -2.1600704e-01 -6.7966775e-04 
-2.3897777e-01 -2.2011252e-01 -7.9027034e-04 
-2.3458952e-01 -2.1598130e-01 -3.3495685e-03 
-2.3882352e-01 -2.2018668e-01 -2.8150040e-03 
-2.3201211e-01 -2.1318638e-01 -1.6001498e-03 
-2.3188531e-01 -2.1326028e-01 -3.3832472e-03 
-2.3248746e-01 -2.1358755e-01 -9.1332285e-04 
-2.3558629e-01 -2.1668394e-01 -6.8755070e-04 
-2.3319998e-01 -2.1427195e-01 -6.1792345e-04 
-2.3207788e-01 -2.1347933e-01 -3.6028565e-03 
-2.3533386e-01 -2.1666048e-01 -2.7241502e-03 
-2.3697241e-01 -2.1808830e-01 -7.5671554e-04 
-2.3281744e-01 -2.1419384e-01 -3.3315218e-03 
-2.3124602e-01 -2.1251100e-01 -2.4536510e-03 
-2.3682672e-01 -2.1813007e-01 -2.4194571e-03 
-2.3408613e-01 -2.1516505e-01 -6.2114088e-04 
-2.3377438e-01 -2.1509907e-01 -2.8107215e-03 
-2.3882039e-01 -2.1994741e-01 -7.3246355e-04 
-2.3871817e-01 -2.1999055e-01 -2.0206296e-03 
-2.3036000e-01 -2.1151733e-01 -1.5587312e-03 
-2.3023212e-01 -2.1159270e-01 -3.3658056e-03 
-2.3072910e-01 -2.1180923e-01 -8.5163477e-04 
-2.3145452e-01 -2.1250643e-01 -5.5521092e-04 
-2.3026246e-01 -2.1164864e-01 -3.5890725e-03 
-2.3101516e-01 -2.1237595e-01 -3.3130383e-03 
-2.2958833e-01 -2.1083854e-01 -2.4313279e-03 
-2.3215045e-01 -2.1321031e-01 -5.7993218e-04 
-2.3178707e-01 -2.1308048e-01 -2.6655549e-03 
-2.3457706e-01 -2.1565311e-01 -5.6315667e-04 
-2.3677507e-01 -2.1786143e-01 -5.0905620e-04 
-2.3668636e-01 -2.1787171e-01 -1.3875455e-03 
-2.3436442e-01 -2.1556966e-01 -1.7165835e-03 
-2.2859870e-01 -2.0994046e-01 -3.3079593e-03 
-2.2869819e-01 -2.0983854e-01 -1.5172580e-03 
-2.2967796e-01 -2.1070956e-01 -4.9157150e-04 
-2.3059690e-01 -2.1163735e-01 -5.1029667e-04 
-2.2893925e-01 -2.0999905e-01 -7.8899000e-04 
-2.3866212e-01 -2.1975210e-01 -4.1580634e-04 
-2.3861179e-01 -2.1976919e-01 -1.0135097e-03 
-2.2918178e-01 -2.1052666e-01 -3.2940097e-03 
-2.3017375e-01 -2.1146519e-01 -2.7548748e-03 
-2.2841559e-01 -2.0978628e-01 -3.5749145e-03 
-2.2792108e-01 -2.0915623e-01 -2.4088267e-03 
-2.3110934e-01 -2.1214777e-01 -4.5899927e-04 
-2.2702676e-01 -2.0815006e-01 -1.4754767e-03 
-2.2689676e-01 -2.0822838e-01 -3.3309164e-03 
-2.2786938e-01 -2.0888036e-01 -4.2699691e-04 
-2.3078872e-01 -2.1195625e-01 -1.6195989e-03 
-2.2711693e-01 -2.0815623e-01 -7.2541268e-04 
-2.2859195e-01 -2.0961301e-01 -4.6940046e-04 
-2.2731636e-01 -2.0864506e-01 -3.2744498e-03 
-2.2653610e-01 -2.0789108e-01 -3.5605710e-03 
-2.2811761e-01 -2.0937665e-01 -2.6032960e-03 
-2.2624390e-01 -2.0746413e-01 -2.3862645e-03 
-2.3853071e-01 -2.1951313e-01 5.2382983e-04 
-2.3575702e-01 -2.1670893e-01 6.0994900e-04 
-2.2534528e-01 -2.0645146e-01 -1.4336181e-03 
-2.2521429e-01 -2.0653133e-01 -3.3133994e-03 
-2.2602768e-01 -2.0701794e-01 -3.6148826e-04 
-2.2676429e-01 -2.0776562e-01 -4.1309249e-04 
-2.2644719e-01 -2.0770417e-01 -2.6955050e-03 
-2.2526103e-01 -2.0627964e-01 -6.6090771e-04 
-2.2541791e-01 -2.0673022e-01 -3.2543580e-03 
-2.2455668e-01 -2.0576186e-01 -2.3635628e-03 
-2.3298344e-01 -2.1390498e-01 6.9592206e-04 
-2.2714259e-01 -2.0814478e-01 -3.9602659e-04 
-2.2462317e-01 -2.0596223e-01 -3.5458186e-03 
-2.2882740e-01 -2.0981196e-01 -1.3061210e-04 
-2.2879207e-01 -2.0985077e-01 -7.8864821e-04 
-2.2708876e-01 -2.0821719e-01 -1.5159631e-03 
-2.2361065e-01 -2.0492440e-01 -3.3888477e-03 
-2.2365370e-01 -2.0474295e-01 -1.3917092e-03 
-2.2490303e-01 -2.0588453e-01 -3.5609855e-04 
-2.2415194e-01 -2.0512120e-01 -2.9503307e-04 
-2.3021024e-01 -2.1110161e-01 7.8164833e-04 
-2.2337073e-01 -2.0436835e-01 -5.9529132e-04 
-2.2431798e-01 -2.0554151e-01 -2.5369052e-03 
-2.2348534e-01 -2.0478113e-01 -3.2337888e-03 
-2.2285940e-01 -2.0404959e-01 -2.3407643e-03 
-2.2267574e-01 -2.0399866e-01 -3.5307489e-03 
-2.2605550e-01 -2.0701008e-01 -4.2398726e-05 
-2.2323236e-01 -2.0419323e-01 -2.8004125e-04 
-2.2195192e-01 -2.0302430e-01 -1.3494997e-03 
-2.2181928e-01 -2.0311889e-01 -3.3799144e-03 
-2.2224104e-01 -2.0318913e-01 -2.2772764e-04 
-2.2258686e-01 -2.0380841e-01 -2.6323579e-03 
-2.2743827e-01 -2.0830007e-01 8.6683332e-04 
-2.2379285e-01 -2.0475328e-01 -2.3997560e-04 
-2.2144476e-01 -2.0242119e-01 -5.2884856e-04 
-2.2115156e-01 -2.0232697e-01 -2.3178882e-03 
-2.2151774e-01 -2.0279668e-01 -3.2124410e-03 
-2.2325717e-01 -2.0434515e-01 -1.4049093e-03 
-2.2069265e-01 -2.0199944e-01 -3.5152556e-03 
-2.2023968e-01 -2.0129523e-01 -1.3073483e-03 
-2.2001091e-01 -2.0129259e-01 -3.3390147e-03 
-2.2107552e-01 -2.0201671e-01 -2.4007411e-04 
-2.2029394e-01 -2.0122065e-01 -1.5951255e-04 
-2.2466609e-01 -2.0549829e-01 9.5181545e-04 
-2.1943343e-01 -2.0059405e-01 -2.2948051e-03 
-2.2037996e-01 -2.0156705e-01 -2.4662886e-03 
-2.1948203e-01 -2.0043728e-01 -4.6151923e-04 
-2.1951379e-01 -2.0077598e-01 -3.1906387e-03 
-2.1867305e-01 -1.9996345e-01 -3.4992006e-03 
-2.1851708e-01 -1.9955587e-01 -1.2651297e-03 
-2.1838203e-01 -1.9964121e-01 -3.2427693e-03 
-2.1934058e-01 -2.0026068e-01 -1.6098747e-04 
-2.1992798e-01 -2.0084806e-01 -1.2477984e-04 
-2.1830945e-01 -1.9921479e-01 -9.0645502e-05 
-2.1858425e-01 -1.9976968e-01 -2.5652242e-03 
-2.1770512e-01 -1.9885077e-01 -2.2714327e-03 
-2.2189546e-01 -2.0269863e-01 1.0361089e-03 
-2.1928529e-01 -2.0033152e-01 -1.2860826e-03 
-2.1748163e-01 -1.9841561e-01 -3.9338481e-04 
-2.1747288e-01 -1.9871786e-01 -3.1678358e-03 
-2.1670157e-01 -1.9794333e-01 -3.1921044e-03 
-2.1678415e-01 -1.9780646e-01 -1.2225052e-03 
-2.1661578e-01 -1.9788960e-01 -3.4830142e-03 
-2.1710086e-01 -1.9800131e-01 -1.2181215e-04 
-2.1596605e-01 -1.9709720e-01 -2.2481601e-03 
-2.1628681e-01 -1.9717076e-01 -2.0945228e-05 
-2.1629554e-01 -1.9744557e-01 -2.3907572e-03 
-2.1544209e-01 -1.9635472e-01 -3.2432529e-04 
-2.1539393e-01 -1.9662172e-01 -3.1449005e-03 
-2.1774672e-01 -1.9861339e-01 2.1913723e-04 
-2.1912648e-01 -1.9990133e-01 1.1197559e-03 
-2.1504050e-01 -1.9604595e-01 -1.1798664e-03 
-2.1490341e-01 -1.9613405e-01 -3.2067567e-03 
-2.1451958e-01 -1.9577686e-01 -3.4664264e-03 
-2.1529788e-01 -1.9617705e-01 -3.9373463e-05 
-2.1591425e-01 -1.9679376e-01 -6.0151751e-06 
-2.1421646e-01 -1.9533277e-01 -2.2245371e-03 
-2.1422410e-01 -1.9508654e-01 4.9741255e-05 
-2.1443133e-01 -1.9557999e-01 -2.4935869e-03 
-2.1516526e-01 -1.9616920e-01 -1.1589646e-03 
-2.1329576e-01 -1.9452268e-01 -3.2734210e-03 
-2.1442479e-01 -1.9540673e-01 -1.0075123e-03 
-2.1333078e-01 -1.9433406e-01 -1.2630798e-03 
-2.1336251e-01 -1.9425356e-01 -2.5437793e-04 
-2.1327481e-01 -1.9448552e-01 -3.1207323e-03 
-2.1635884e-01 -1.9710548e-01 1.2027645e-03 
-2.1238329e-01 -1.9362417e-01 -3.4490572e-03 
-2.1245626e-01 -1.9355822e-01 -2.2008514e-03 
-2.1296939e-01 -1.9382907e-01 -8.8501446e-07 
-2.1212064e-01 -1.9296128e-01 1.2108321e-04 
-2.1140336e-01 -1.9261873e-01 -3.2813358e-03 
-2.1152127e-01 -1.9249392e-01 -1.0948722e-03 
-2.1205467e-01 -1.9316709e-01 -2.3102961e-03 
-2.1124160e-01 -1.9211105e-01 -1.8332107e-04 
-2.1111485e-01 -1.9230859e-01 -3.0962273e-03 
-2.1068533e-01 -1.9177288e-01 -2.1772163e-03 
-2.1359316e-01 -1.9431259e-01 1.2847238e-03 
-2.1020563e-01 -1.9143008e-01 -3.4314110e-03 
-2.1177569e-01 -1.9260839e-01 1.7077297e-04 
-2.1084219e-01 -1.9168100e-01 6.0454211e-05 
-2.0974524e-01 -1.9070211e-01 -1.0519841e-03 
-2.0997491e-01 -1.9079395e-01 1.9283254e-04 
-2.1011752e-01 -1.9122922e-01 -2.4170913e-03 
-2.0948496e-01 -1.9068493e-01 -3.2548080e-03 
-2.1088655e-01 -1.9184703e-01 -1.0229953e-03 
-2.0907791e-01 -1.8992572e-01 -1.1187128e-04 
-2.0890278e-01 -1.8997660e-01 -2.1535468e-03 
-2.0891322e-01 -1.9008999e-01 -3.0703540e-03 
-2.0898050e-01 -1.8980610e-01 7.6874632e-05 
-2.0798579e-01 -1.8919419e-01 -3.4129070e-03 
-2.0795815e-01 -1.8889926e-01 -1.0095609e-03 
-2.0781662e-01 -1.8899223e-01 -3.1336886e-03 
-2.1083079e-01 -1.9152400e-01 1.3655605e-03 
-2.0945519e-01 -1.9023943e-01 4.7306035e-04 
-2.0778614e-01 -1.8858369e-01 2.6503002e-04 
-2.0716219e-01 -1.8820471e-01 -1.9664683e-03 
-2.0764844e-01 -1.8872327e-01 -2.2241741e-03 
-2.0710981e-01 -1.8817019e-01 -2.1298367e-03 
-2.0687075e-01 -1.8769763e-01 -4.0621057e-05 
-2.0666912e-01 -1.8782882e-01 -3.0431405e-03 
-2.0616022e-01 -1.8708618e-01 -9.6701365e-04 
-2.0601952e-01 -1.8717937e-01 -3.0865902e-03 
-2.0645764e-01 -1.8725614e-01 1.8291632e-04 
-2.0572263e-01 -1.8691529e-01 -3.3935066e-03 
-2.0702747e-01 -1.8780516e-01 3.9901794e-04 
-2.0684947e-01 -1.8773754e-01 -5.9847860e-04 
-2.0806995e-01 -1.8873671e-01 1.4452783e-03 
-2.0555346e-01 -1.8632975e-01 3.3746753e-04 
-2.0530617e-01 -1.8635328e-01 -2.1052407e-03 
-2.0538121e-01 -1.8643758e-01 -2.1780538e-03 
-2.0461917e-01 -1.8542507e-01 3.1437867e-05 
-2.0437570e-01 -1.8553661e-01 -3.1818836e-03 
-2.0435227e-01 -1.8526353e-01 -9.2503865e-04 
-2.0438057e-01 -1.8552446e-01 -3.0159866e-03 
-2.0419931e-01 -1.8497790e-01 2.4536945e-04 
-2.0341569e-01 -1.8459290e-01 -3.3738115e-03 
-2.0349298e-01 -1.8452673e-01 -2.0808426e-03 
-2.0327479e-01 -1.8403077e-01 4.1023272e-04 
-2.0408873e-01 -1.8495497e-01 -5.4393033e-04 
-2.0402040e-01 -1.8478066e-01 4.0175780e-04 
-2.0531408e-01 -1.8595630e-01 1.5232324e-03 
-2.0306912e-01 -1.8410763e-01 -2.1311704e-03 
-2.0238960e-01 -1.8352702e-01 -3.0767394e-03 
-2.0252037e-01 -1.8343124e-01 -1.0186977e-03 
-2.0232111e-01 -1.8310706e-01 1.0459683e-04 
-2.0204748e-01 -1.8317549e-01 -2.9871280e-03 
-2.0166799e-01 -1.8268916e-01 -2.0568387e-03 
-2.0218515e-01 -1.8295072e-01 2.6839023e-04 
-2.0106281e-01 -1.8222506e-01 -3.3530463e-03 
-2.0094970e-01 -1.8168569e-01 4.8343698e-04 
-2.0070405e-01 -1.8158644e-01 -8.4002590e-04 
-2.0055786e-01 -1.8168420e-01 -3.0576871e-03 
-2.0071156e-01 -1.8173261e-01 -2.0823197e-03 
-2.0145749e-01 -1.8229447e-01 -4.0411396e-04 
-2.0256309e-01 -1.8318200e-01 1.6003980e-03 
-1.9997634e-01 -1.8074240e-01 1.7792523e-04 
-2.0110680e-01 -1.8183537e-01 5.5392005e-04 
-1.9983180e-01 -1.8084173e-01 -2.0335787e-03 
-1.9966799e-01 -1.8078083e-01 -2.9573566e-03 
-1.9973500e-01 -1.8048233e-01 3.2735293e-04 
-1.9886282e-01 -1.7973217e-01 -7.9808192e-04 
-1.9871563e-01 -1.7983186e-01 -3.0387021e-03 
-1.9866315e-01 -1.7981149e-01 -3.3320149e-03 
-1.9857639e-01 -1.7929308e-01 5.5708934e-04 
-1.9830699e-01 -1.7931134e-01 -2.0318406e-03 
-1.9798477e-01 -1.7898422e-01 -2.0094237e-03 
-1.9883442e-01 -1.7966279e-01 -4.3489123e-04 
-1.9981745e-01 -1.8041435e-01 1.6758392e-03 
-1.9758244e-01 -1.7832957e-01 2.5177316e-04 
-1.9724056e-01 -1.7833924e-01 -2.9266796e-03 
-1.9843389e-01 -1.7913987e-01 6.4866204e-04 
-1.9701080e-01 -1.7786747e-01 -7.5642962e-04 
-1.9686303e-01 -1.7796883e-01 -3.0196314e-03 
-1.9720496e-01 -1.7793407e-01 3.9336694e-04 
-1.9621477e-01 -1.7735055e-01 -3.3102443e-03 
-1.9612724e-01 -1.7711562e-01 -1.9846584e-03 
-1.9615303e-01 -1.7685165e-01 6.3098234e-04 
-1.9585368e-01 -1.7684211e-01 -1.9797536e-03 
-1.9514847e-01 -1.7599311e-01 -7.1466697e-04 
-1.9499920e-01 -1.7609480e-01 -3.0010263e-03 
-1.9513786e-01 -1.7586754e-01 3.2643692e-04 
-1.9707733e-01 -1.7765404e-01 1.7492938e-03 
-1.9476371e-01 -1.7584939e-01 -2.8949415e-03 
-1.9573794e-01 -1.7655578e-01 -4.5522320e-04 
-1.9578242e-01 -1.7646638e-01 7.4636826e-04 
-1.9425796e-01 -1.7523682e-01 -1.9610161e-03 
-1.9463733e-01 -1.7534924e-01 4.5926633e-04 
-1.9371642e-01 -1.7484081e-01 -3.2872197e-03 
-1.9367868e-01 -1.7436029e-01 7.0437131e-04 
-1.9370992e-01 -1.7466612e-01 -1.7595121e-03 
-1.9327331e-01 -1.7410725e-01 -6.7299523e-04 
-1.9312422e-01 -1.7421184e-01 -2.9805221e-03 
-1.9264176e-01 -1.7335513e-01 4.0044877e-04 
-1.9434337e-01 -1.7490067e-01 1.8233125e-03 
-1.9237821e-01 -1.7334859e-01 -1.9350912e-03 
-1.9223687e-01 -1.7331064e-01 -2.8621671e-03 
-1.9310480e-01 -1.7377220e-01 8.0994534e-04 
-1.9275011e-01 -1.7352675e-01 -1.8074887e-04 
-1.9207785e-01 -1.7277388e-01 5.2501430e-04 
-1.9138880e-01 -1.7221273e-01 -6.3029566e-04 
-1.9123754e-01 -1.7231786e-01 -2.9603099e-03 
-1.9116786e-01 -1.7228174e-01 -3.2646349e-03 
-1.9115208e-01 -1.7181814e-01 7.7759777e-04 
-1.9114643e-01 -1.7207569e-01 -1.5875618e-03 
-1.9048661e-01 -1.7144898e-01 -1.9100074e-03 
-1.9009398e-01 -1.7079158e-01 4.7458088e-04 
-1.8991731e-01 -1.7085233e-01 -1.6745117e-03 
-1.9161601e-01 -1.7215686e-01 1.8943975e-03 
-1.8965849e-01 -1.7072156e-01 -2.8283156e-03 
-1.9046991e-01 -1.7112622e-01 8.3339371e-04 
-1.8949227e-01 -1.7030711e-01 -5.9014530e-04 
-1.8933965e-01 -1.7041232e-01 -2.9408708e-03 
-1.8949944e-01 -1.7018081e-01 5.9405813e-04 
-1.9003573e-01 -1.7078680e-01 -2.5843783e-05 
-1.8856674e-01 -1.6967152e-01 -3.2400326e-03 
-1.8858413e-01 -1.6953914e-01 -1.8863071e-03 
-1.8857136e-01 -1.6922309e-01 8.5125910e-04 
-1.8849984e-01 -1.6941525e-01 -1.5144922e-03 
-1.8758413e-01 -1.6839014e-01 -5.4832554e-04 
-1.8743217e-01 -1.6849838e-01 -2.9205463e-03 
-1.8748894e-01 -1.6817391e-01 5.4818601e-04 
-1.8889330e-01 -1.6941862e-01 1.9644587e-03 
-1.8702659e-01 -1.6808048e-01 -2.7929156e-03 
-1.8781018e-01 -1.6845307e-01 8.9421810e-04 
-1.8667048e-01 -1.6761905e-01 -1.8607175e-03 
-1.8687800e-01 -1.6754706e-01 6.6063943e-04 
-1.8737380e-01 -1.6809832e-01 1.5977740e-04 
-1.8605417e-01 -1.6690767e-01 -9.9262176e-04 
-1.8591112e-01 -1.6700909e-01 -3.2161521e-03 
-1.8593448e-01 -1.6657396e-01 9.2411821e-04 
-1.8566526e-01 -1.6646519e-01 -5.0648156e-04 
-1.8576421e-01 -1.6666129e-01 -1.3858047e-03 
-1.8524146e-01 -1.6631286e-01 -2.9934773e-03 
-1.8482903e-01 -1.6550253e-01 6.2256196e-04 
-1.8474425e-01 -1.6568878e-01 -1.8359415e-03 
-1.8618040e-01 -1.6669352e-01 2.0313831e-03 
-1.8432570e-01 -1.6535725e-01 -2.6166087e-03 
-1.8507275e-01 -1.6570917e-01 9.2627417e-04 
-1.8432775e-01 -1.6498449e-01 7.4061047e-04 
-1.8479338e-01 -1.6548066e-01 4.6910648e-04 
-1.8374076e-01 -1.6453570e-01 -4.7402922e-04 
-1.8358715e-01 -1.6464461e-01 -2.8773244e-03 
-1.8320075e-01 -1.6429308e-01 -3.1906136e-03 
-1.8325478e-01 -1.6388503e-01 9.9518267e-04 
-1.8282101e-01 -1.6376114e-01 -1.8106314e-03 
-1.8250963e-01 -1.6339326e-01 -1.2850593e-03 
-1.8213300e-01 -1.6279812e-01 6.9635391e-04 
-1.8347882e-01 -1.6398290e-01 2.0952700e-03 
-1.8182532e-01 -1.6261578e-01 -4.4739264e-04 
-1.8167329e-01 -1.6272599e-01 -2.8509109e-03 
-1.8163875e-01 -1.6268222e-01 -2.7416060e-03 
-1.8209577e-01 -1.6277415e-01 5.3601869e-04 
-1.8177904e-01 -1.6240400e-01 1.0171273e-03 
-1.8116492e-01 -1.6181400e-01 8.1365381e-04 
-1.8091160e-01 -1.6184725e-01 -1.7846408e-03 
-1.8050385e-01 -1.6159201e-01 -3.1667333e-03 
-1.8058655e-01 -1.6120863e-01 1.0681755e-03 
-1.8004003e-01 -1.6097179e-01 -1.7206953e-03 
-1.7992471e-01 -1.6071238e-01 -4.2241655e-04 
-1.7962365e-01 -1.6068420e-01 -2.9321187e-03 
-1.7948280e-01 -1.6013972e-01 7.6746708e-04 
-1.8078457e-01 -1.6128206e-01 2.1580677e-03 
-1.7896435e-01 -1.6000715e-01 -2.7303991e-03 
-1.7901555e-01 -1.5994912e-01 -1.7604203e-03 
-1.7892639e-01 -1.5956762e-01 8.8473456e-04 
-1.7922793e-01 -1.5997609e-01 -7.5524957e-05 
-1.7945038e-01 -1.6004549e-01 1.2993672e-03 
-1.7854458e-01 -1.5918578e-01 8.8376581e-04 
-1.7784862e-01 -1.5893479e-01 -3.1407711e-03 
-1.7803609e-01 -1.5882228e-01 -3.9876549e-04 
-1.7788580e-01 -1.5893270e-01 -2.7980173e-03 
-1.7796344e-01 -1.5857771e-01 1.1368071e-03 
-1.7739019e-01 -1.5832524e-01 -1.7371536e-03 
-1.7713442e-01 -1.5806670e-01 -1.7355329e-03 
-1.7687766e-01 -1.5752834e-01 8.3352224e-04 
-1.7809992e-01 -1.5859206e-01 2.2226847e-03 
-1.7633307e-01 -1.5737669e-01 -2.7179036e-03 
-1.7616999e-01 -1.5723187e-01 -2.9154753e-03 
-1.7616457e-01 -1.5695032e-01 -3.7682054e-04 
-1.7633206e-01 -1.5696660e-01 9.5464970e-04 
-1.7676955e-01 -1.5735924e-01 1.3634986e-03 
-1.7672245e-01 -1.5738918e-01 6.6627742e-04 
-1.7523624e-01 -1.5632191e-01 -3.1150365e-03 
-1.7580765e-01 -1.5660611e-01 -5.1176443e-04 
-1.7538445e-01 -1.5599464e-01 1.2019156e-03 
-1.7526932e-01 -1.5620033e-01 -1.7120735e-03 
-1.7549236e-01 -1.5612777e-01 9.5243845e-04 
-1.7478399e-01 -1.5572399e-01 -1.7519923e-03 
-1.7430653e-01 -1.5509112e-01 -3.5442199e-04 
-1.7431597e-01 -1.5496390e-01 8.9831150e-04 
-1.7541982e-01 -1.5590718e-01 2.2806395e-03 
-1.7374419e-01 -1.5479058e-01 -2.7046860e-03 
-1.7374837e-01 -1.5481281e-01 -2.9121472e-03 
-1.7378199e-01 -1.5441363e-01 1.0218882e-03 
-1.7341569e-01 -1.5434828e-01 -1.6876110e-03 
-1.7409554e-01 -1.5467951e-01 1.4261949e-03 
-1.7404781e-01 -1.5470885e-01 7.3026388e-04 
-1.7266504e-01 -1.5375361e-01 -3.0894398e-03 
-1.7284946e-01 -1.5345836e-01 1.2637570e-03 
-1.7246106e-01 -1.5324874e-01 -3.3417947e-04 
-1.7231330e-01 -1.5335920e-01 -2.7199453e-03 
-1.7271833e-01 -1.5353785e-01 -6.4469775e-04 
-1.7282663e-01 -1.5346092e-01 1.0076824e-03 
-1.7221984e-01 -1.5316740e-01 -1.7646037e-03 
-1.7176598e-01 -1.5270138e-01 -1.6732420e-03 
-1.7179945e-01 -1.5244721e-01 9.5899281e-04 
-1.7157792e-01 -1.5251173e-01 -1.6631668e-03 
-1.7275110e-01 -1.5323569e-01 2.3373817e-03 
-1.7120624e-01 -1.5229096e-01 -3.0316922e-03 
-1.7119800e-01 -1.5224886e-01 -2.6899802e-03 
-1.7127661e-01 -1.5190759e-01 1.0859863e-03 
-1.7143458e-01 -1.5201913e-01 1.4855642e-03 
-1.7138606e-01 -1.5204801e-01 7.9199660e-04 
-1.7063206e-01 -1.5142404e-01 -3.1475944e-04 
-1.7048268e-01 -1.5153171e-01 -2.6931248e-03 
-1.7035820e-01 -1.5122724e-01 -1.0269986e-03 
-1.7013490e-01 -1.5122820e-01 -3.0620266e-03 
-1.7026347e-01 -1.5109664e-01 -6.9233350e-04 
-1.7036037e-01 -1.5096977e-01 1.3206657e-03 
-1.7006476e-01 -1.5088692e-01 -5.7788996e-04 
-1.7017393e-01 -1.5081109e-01 1.0607080e-03 
-1.6969985e-01 -1.5065633e-01 -1.7731971e-03 
-1.6975521e-01 -1.5069352e-01 -1.6414525e-03 
-1.6938530e-01 -1.5047389e-01 -3.0038857e-03 
-1.6932590e-01 -1.4997670e-01 1.0130487e-03 
-1.6887939e-01 -1.4992243e-01 -2.5815284e-03 
-1.6869153e-01 -1.4975102e-01 -2.6757852e-03 
-1.7009543e-01 -1.5058270e-01 2.3911872e-03 
-1.6868646e-01 -1.4962687e-01 -1.6192516e-03 
-1.6881782e-01 -1.4961380e-01 -2.9711373e-04 
-1.6881688e-01 -1.4945082e-01 1.1495411e-03 
-1.6878663e-01 -1.4937606e-01 1.5426603e-03 
-1.6873750e-01 -1.4940445e-01 8.5138099e-04 
-1.6794911e-01 -1.4889193e-01 -1.6172224e-03 
-1.6764833e-01 -1.4874962e-01 -3.0357128e-03 
-1.6791056e-01 -1.4852543e-01 1.3748239e-03 
-1.6721934e-01 -1.4818875e-01 -1.7869574e-03 
-1.6742460e-01 -1.4824978e-01 -5.0953508e-04 
-1.6753393e-01 -1.4817645e-01 1.1147046e-03 
-1.6702031e-01 -1.4782244e-01 -2.7841073e-04 
-1.6683832e-01 -1.4777441e-01 -1.4918710e-03 
-1.6687235e-01 -1.4793161e-01 -2.6393395e-03 
-1.6689518e-01 -1.4755026e-01 1.0677465e-03 
-1.6622663e-01 -1.4729492e-01 -2.6604855e-03 
-1.6745345e-01 -1.4794663e-01 2.4418333e-03 
-1.6639777e-01 -1.4703616e-01 1.2068702e-03 
-1.6615696e-01 -1.4710668e-01 -1.5957371e-03 
-1.6579138e-01 -1.4689112e-01 -2.9556642e-03 
-1.6537601e-01 -1.4620902e-01 -4.8986124e-04 
-1.6550693e-01 -1.4612728e-01 1.4260772e-03 
-1.6520011e-01 -1.4631051e-01 -3.0081952e-03 
-1.6615254e-01 -1.4674813e-01 1.5971655e-03 
-1.6610289e-01 -1.4677572e-01 9.0808724e-04 
-1.6514307e-01 -1.4608559e-01 -1.4755444e-03 
-1.6521141e-01 -1.4607544e-01 -7.5396814e-04 
-1.6523501e-01 -1.4604539e-01 -2.6083857e-04 