# vtk DataFile Version 4.0
vtk output
ASCII
DATASET UNSTRUCTURED_GRID
POINTS 6166 float
-4.3633327e-01 9.6409470e-01 4.4200001e+01 
-4.3633261e-01 9.6409082e-01 4.4079685e+01 
-3.2145375e-01 9.1276109e-01 4.4200001e+01 
-3.8566181e-01 8.4097892e-01 4.4200001e+01 
-3.3069235e-01 9.1895354e-01 4.4019413e+01 
-3.8473952e-01 8.3919770e-01 4.4024357e+01 
-4.3633196e-01 9.6408689e-01 4.3958702e+01 
-2.1293370e-01 8.4677851e-01 4.4200001e+01 
-2.9042658e-01 7.3813015e-01 4.4200001e+01 
-2.1019450e-01 8.4669626e-01 4.4077393e+01 
-2.8909999e-01 7.3605996e-01 4.4073399e+01 
-3.2963324e-01 9.1929907e-01 4.3898094e+01 
-3.8679782e-01 8.4179753e-01 4.3889645e+01 
-2.0740938e-01 8.4661204e-01 4.3952713e+01 
-4.3633130e-01 9.6408290e-01 4.3837040e+01 
-1.1677200e-01 7.7521002e-01 4.4200001e+01 
-2.8775173e-01 7.3395580e-01 4.3944717e+01 
-1.9365783e-01 6.6203654e-01 4.4200001e+01 
-1.1309985e-01 7.7540898e-01 4.4012005e+01 
-1.9181472e-01 6.5888047e-01 4.4006447e+01 
-3.2856464e-01 9.1964108e-01 4.3776085e+01 
-3.8823184e-01 8.4352189e-01 4.3765770e+01 
-2.0457739e-01 8.4652513e-01 4.3825886e+01 
-2.8638119e-01 7.3181647e-01 4.3813885e+01 
-4.3633065e-01 9.6407896e-01 4.3714680e+01 
-1.0911675e-01 7.7426714e-01 4.3886200e+01 
-2.1001574e-02 6.8269837e-01 4.4200001e+01 
-1.8902887e-01 6.5566909e-01 4.3876659e+01 
-7.8887597e-02 5.9015810e-01 4.4200001e+01 
-3.2748649e-01 9.1997939e-01 4.3653378e+01 
-3.9889076e-01 8.5876143e-01 4.3651733e+01 
-2.0169757e-01 8.4643483e-01 4.3696846e+01 
-7.2496021e-03 6.7325598e-01 4.3947758e+01 
-1.0504345e-01 7.7307969e-01 4.3758209e+01 
-2.8498772e-01 7.2964084e-01 4.3680840e+01 
-6.3224643e-02 5.7783771e-01 4.3940754e+01 
3.5808440e-02 6.2679136e-01 4.4056572e+01 
-1.8616955e-01 6.5238589e-01 4.3744686e+01 
-4.3632996e-01 9.6407503e-01 4.3591618e+01 
-9.8678423e-03 5.4892725e-01 4.4055367e+01 
-1.8652271e-02 6.8798620e-01 4.3834026e+01 
-7.9845116e-02 5.8636194e-01 4.3823372e+01 
8.7777540e-02 5.7885915e-01 4.4200001e+01 
5.3622175e-02 5.1732427e-01 4.4200001e+01 
-3.2639861e-01 9.2031354e-01 4.3529953e+01 
-3.9894739e-01 8.5844576e-01 4.3528313e+01 
-1.9876897e-01 8.4634024e-01 4.3565521e+01 
-1.0087753e-01 7.7184403e-01 4.3627972e+01 
-2.8357074e-01 7.2742778e-01 4.3545506e+01 
-1.8323407e-01 6.4902818e-01 4.3610458e+01 
-4.3632931e-01 9.6407109e-01 4.3467831e+01 
3.1033519e-03 6.6751039e-01 4.3691772e+01 
-5.3600248e-02 5.6906003e-01 4.3676846e+01 
1.2436585e-01 5.5082864e-01 4.3886215e+01 
1.7079005e-01 5.1095647e-01 4.4054855e+01 
1.4951277e-01 4.6697062e-01 4.4053665e+01 
1.0028158e-01 4.8915190e-01 4.3877911e+01 
-4.0513036e-01 8.6722642e-01 4.3405304e+01 
-3.2530096e-01 9.2064321e-01 4.3405800e+01 
-9.6616447e-02 7.7055699e-01 4.3495411e+01 
-8.4563000e-03 6.8258613e-01 4.3574005e+01 
-1.9579062e-01 8.4624058e-01 4.3431831e+01 
2.1753120e-01 4.7335833e-01 4.4200001e+01 
2.0360756e-01 4.4289169e-01 4.4200001e+01 
-1.8021962e-01 6.4559317e-01 4.3473904e+01 
-7.0636064e-02 5.7773441e-01 4.3555408e+01 
-2.8212959e-01 7.2517604e-01 4.3407806e+01 
-4.3632865e-01 9.6406716e-01 4.3343307e+01 
1.3810426e-01 5.4143524e-01 4.3628246e+01 
-3.2419339e-01 9.2096806e-01 4.3280907e+01 
-3.9903235e-01 8.5775709e-01 4.3279266e+01 
-9.2257597e-02 7.6921552e-01 4.3360443e+01 
1.1508528e-01 4.7804743e-01 4.3612068e+01 
-1.9276154e-01 8.4613472e-01 4.3295704e+01 
1.4013666e-02 6.6131532e-01 4.3426643e+01 
-1.7712323e-01 6.4207786e-01 4.3334946e+01 
-2.8066361e-01 7.2288430e-01 4.3267666e+01 
-4.3382257e-02 5.5983055e-01 4.3403778e+01 
-4.3632799e-01 9.6406323e-01 4.3218033e+01 
3.7877345e-01 3.8273901e-01 4.4200001e+01 
3.9076596e-01 3.7443376e-01 4.3993755e+01 
-3.2307580e-01 9.2128778e-01 4.3155251e+01 
-3.9906058e-01 8.5738426e-01 4.3153610e+01 
-8.7798268e-02 7.6781619e-01 4.3222996e+01 
1.9689407e-02 6.5803534e-01 4.3290459e+01 
-6.0862999e-02 5.6866169e-01 4.3278019e+01 
-1.8968078e-01 8.4602165e-01 4.3157055e+01 
-1.7394182e-01 6.3847917e-01 4.3193501e+01 
-4.3632734e-01 9.6405929e-01 4.3091995e+01 
4.0275589e-01 3.6612594e-01 4.3787510e+01 
1.2304078e-01 5.5709994e-01 4.3330139e+01 
-2.7917209e-01 7.2055119e-01 4.3125000e+01 
2.5336364e-01 4.4907436e-01 4.3468094e+01 
2.3670304e-01 4.1684708e-01 4.3469433e+01 
1.3086085e-01 4.6634668e-01 4.3336948e+01 
-3.8351217e-01 8.3473074e-01 4.3036392e+01 
-3.2194808e-01 9.2160189e-01 4.3028820e+01 
2.5518833e-02 6.5462554e-01 4.3151749e+01 
-8.3235659e-02 7.6635528e-01 4.3082981e+01 
4.1474071e-01 3.5781288e-01 4.3581264e+01 
-1.8654740e-01 8.4590012e-01 4.3015797e+01 
-3.2522827e-02 5.5011308e-01 4.3120937e+01 
-1.7067213e-01 6.3479382e-01 4.3049488e+01 
-4.3632668e-01 9.6405542e-01 4.2965172e+01 
-2.7765438e-01 7.1817529e-01 4.2979721e+01 
2.6620242e-01 4.4011977e-01 4.3261948e+01 
1.3584816e-02 6.7044950e-01 4.3025066e+01 
-3.2081014e-01 9.2191011e-01 4.2901604e+01 
-3.8160574e-01 8.3169121e-01 4.2902863e+01 
-7.8566879e-02 7.6482886e-01 4.2940315e+01 
-5.0480481e-02 5.5910730e-01 4.2990566e+01 
4.2671782e-01 3.4949207e-01 4.3375019e+01 
1.6821145e-01 5.2049083e-01 4.3083881e+01 
-1.8336046e-01 8.4576881e-01 4.2871841e+01 
-4.3632606e-01 9.6405160e-01 4.2837555e+01 
-1.6731077e-01 6.3101834e-01 4.2902817e+01 
1.4768846e-01 4.5400122e-01 4.3051926e+01 
-2.7610970e-01 7.1575516e-01 4.2831745e+01 
-3.1966189e-01 9.2221189e-01 4.2773579e+01 
-3.8560396e-01 8.3684862e-01 4.2767078e+01 
3.7660085e-02 6.4738947e-01 4.2866421e+01 
-7.3788933e-02 7.6323271e-01 4.2794899e+01 
4.3868470e-01 3.4116083e-01 4.3168777e+01 
-4.3632543e-01 9.6404779e-01 4.2709122e+01 
-2.0968946e-02 5.3986710e-01 4.2827656e+01 
-1.8011902e-01 8.4562629e-01 4.2725094e+01 
-1.6385415e-01 6.2714905e-01 4.2753403e+01 
-2.7453732e-01 7.1328926e-01 4.2680973e+01 
-3.1850323e-01 9.2250693e-01 4.2644733e+01 
-3.9907700e-01 8.5570478e-01 4.2643101e+01 
2.5504474e-02 6.6361672e-01 4.2734810e+01 
1.8471870e-01 5.0880390e-01 4.2796177e+01 
-6.8898737e-02 7.6156229e-01 4.2646645e+01 
-3.9438177e-02 5.4903054e-01 4.2692345e+01 
-4.3632481e-01 9.6404403e-01 4.2579861e+01 
4.5063871e-01 3.3281663e-01 4.2962532e+01 
1.6565691e-01 4.4095638e-01 4.2756321e+01 
-1.7682223e-01 8.4547096e-01 4.2575459e+01 
-1.6029853e-01 6.2318206e-01 4.2601143e+01 
-4.0415615e-01 8.6278629e-01 4.2516582e+01 
-3.1733403e-01 9.2279470e-01 4.2515053e+01 
-2.7293649e-01 7.1077597e-01 4.2527313e+01 
5.0482783e-02 6.3954860e-01 4.2569923e+01 
-4.3632418e-01 9.6404034e-01 4.2449757e+01 
-6.3893095e-02 7.5981271e-01 4.2495445e+01 
-8.6617703e-03 5.2904755e-01 4.2523201e+01 
-1.7346917e-01 8.4530097e-01 4.2422829e+01 
-1.5663996e-01 6.1911333e-01 4.2445942e+01 
3.0435190e-01 4.1341871e-01 4.2643494e+01 
4.6257737e-01 3.2445681e-01 4.2756287e+01 
-3.1615424e-01 9.2307472e-01 4.2384518e+01 
-3.9902648e-01 8.5475212e-01 4.2382885e+01 
-2.7130640e-01 7.0821363e-01 4.2370659e+01 
3.8079392e-02 6.5619886e-01 4.2433029e+01 
2.0230262e-01 4.9620378e-01 4.2497147e+01 
-4.3632355e-01 9.6403670e-01 4.2318787e+01 
-5.8768708e-02 7.5797862e-01 4.2341198e+01 
-2.7680276e-02 5.3838593e-01 4.2382599e+01 
1.8486446e-01 4.2715022e-01 4.2449394e+01 
-3.8436696e-01 8.3356136e-01 4.2264896e+01 
8.9545198e-02 5.3233254e-01 4.2382050e+01 
-3.3225983e-01 9.3122375e-01 4.2255634e+01 
-1.7005907e-01 8.4511453e-01 4.2267101e+01 
-1.5287429e-01 6.1493850e-01 4.2287693e+01 
4.7449806e-01 3.1607881e-01 4.2550037e+01 
-2.6964626e-01 7.0560038e-01 4.2210907e+01 
-4.3632296e-01 9.6403313e-01 4.2186939e+01 
6.4036883e-02 6.3103610e-01 4.2261456e+01 
-5.3522192e-02 7.5605446e-01 4.2183796e+01 
-3.7873057e-01 8.2541841e-01 4.2124020e+01 
-3.1376252e-01 9.2360973e-01 4.2120819e+01 
4.4639236e-03 5.1760370e-01 4.2206776e+01 
-1.6659111e-01 8.4490943e-01 4.2108162e+01 
-1.4899719e-01 6.1065292e-01 4.2126286e+01 
-4.3632239e-01 9.6402961e-01 4.2054195e+01 
4.8639825e-01 3.0768004e-01 4.2343792e+01 
-2.6795524e-01 7.0293444e-01 4.2047943e+01 
2.4746621e-01 4.6040925e-01 4.2191032e+01 
7.1105182e-02 6.2650448e-01 4.2102463e+01 
-3.1255043e-01 9.2386365e-01 4.1987617e+01 
-4.8150036e-02 7.5403398e-01 4.2023121e+01 
-1.5144684e-02 5.2712250e-01 4.2060505e+01 
-3.7995064e-01 8.2661813e-01 4.1980038e+01 
2.0541981e-01 4.1251117e-01 4.2130333e+01 
-1.6306458e-01 8.4468329e-01 4.1945896e+01 
-4.3632182e-01 9.6402621e-01 4.1920536e+01 
-1.4500406e-01 6.0625184e-01 4.1961609e+01 
1.3375351e-01 5.6370503e-01 4.1969833e+01 
-2.6623246e-01 7.0021385e-01 4.1881653e+01 
-3.1132740e-01 9.2410773e-01 4.1853493e+01 
-3.9880505e-01 8.5261923e-01 4.1851868e+01 
4.9827534e-01 2.9925787e-01 4.2137547e+01 
3.4194937e-01 3.8685825e-01 4.2025021e+01 
-4.2648647e-02 7.5191063e-01 4.1859051e+01 
-2.5401810e-01 7.9503769e-01 4.1808533e+01 
1.8480448e-02 5.0547802e-01 4.1877510e+01 
-4.3632126e-01 9.6402287e-01 4.1785946e+01 
-1.5947884e-01 8.4443361e-01 4.1780174e+01 
-1.4089009e-01 6.0172999e-01 4.1793541e+01 
-3.1009343e-01 9.2434150e-01 4.1718426e+01 
-4.0306881e-01 8.5845691e-01 4.1716179e+01 
8.5861288e-02 6.1683756e-01 4.1774368e+01 
-2.6447710e-01 6.9743657e-01 4.1711910e+01 
3.0427080e-01 4.1638452e-01 4.1839512e+01 
2.6751360e-01 3.7833902e-01 4.1830902e+01 
5.1012677e-01 2.9080975e-01 4.1931297e+01 
-3.7014309e-02 7.4967718e-01 4.1691463e+01 
-4.3632072e-01 9.6401966e-01 4.1650398e+01 
2.5847588e-02 4.9913955e-01 4.1707767e+01 
-1.5583332e-01 8.4415752e-01 4.1610870e+01 
-3.8322043e-01 8.2981020e-01 4.1595791e+01 
-3.0884841e-01 9.2456430e-01 4.1582397e+01 
-1.3665022e-01 5.9708190e-01 4.1621960e+01 
9.3565010e-02 6.1167872e-01 4.1605015e+01 
-2.6268822e-01 6.9460052e-01 4.1538593e+01 
-4.3632022e-01 9.6401656e-01 4.1513885e+01 
-3.1243213e-02 7.4732590e-01 4.1520226e+01 
2.7603787e-01 3.7115356e-01 4.1624012e+01 
2.8505871e-01 4.3281260e-01 4.1611507e+01 
5.2195001e-01 2.8233302e-01 4.1725052e+01 
3.3468332e-02 4.9260557e-01 4.1534447e+01 
-3.9853087e-01 8.5081697e-01 4.1443768e+01 
-3.2560509e-01 9.3245691e-01 4.1443577e+01 
-1.5212752e-01 8.4385180e-01 4.1437847e+01 
-1.3227913e-01 5.9230179e-01 4.1446728e+01 
-4.3631971e-01 9.6401358e-01 4.1376381e+01 
[...]
POINT_DATA 6166
FIELD FieldData 5
DISPLACEMENT 3 6166  float
-4.5047998e-01 -4.1210634e-01 -8.2019987e-03 
-4.4752419e-01 -4.0913770e-01 -8.1291394e-03 
-4.5038322e-01 -4.1186517e-01 -6.6372240e-03 
-4.5017922e-01 -4.1196916e-01 -9.9853026e-03 
-4.4595993e-01 -4.0742952e-01 -6.6027627e-03 
-4.4586000e-01 -4.0763307e-01 -9.8999497e-03 
-4.4455197e-01 -4.0615255e-01 -8.0558946e-03 
-4.5024687e-01 -4.1163194e-01 -5.5896887e-03 
-4.4994411e-01 -4.1175073e-01 -1.0172408e-02 
-4.4723552e-01 -4.0860149e-01 -5.4499386e-03 
-4.4682905e-01 -4.0862381e-01 -1.0113952e-02 
-4.4298062e-01 -4.0443411e-01 -6.4946553e-03 
-4.4255662e-01 -4.0431398e-01 -9.8049575e-03 
-4.4417313e-01 -4.0551966e-01 -5.3078663e-03 
-4.4156295e-01 -4.0315053e-01 -7.9822522e-03 
-4.5009238e-01 -4.1142124e-01 -4.9839588e-03 
-4.4366282e-01 -4.0544546e-01 -1.0054514e-02 
-4.4977811e-01 -4.1153744e-01 -9.6631004e-03 
-4.4547573e-01 -4.0677571e-01 -4.7746822e-03 
-4.4501582e-01 -4.0675738e-01 -9.5780455e-03 
-4.3998438e-01 -4.0142176e-01 -6.3860253e-03 
-4.3951741e-01 -4.0126076e-01 -9.7227059e-03 
-4.4105804e-01 -4.0238494e-01 -5.1634349e-03 
-4.4044384e-01 -4.0221411e-01 -9.9940365e-03 
-4.3855685e-01 -4.0013140e-01 -7.9081934e-03 
-4.4238338e-01 -4.0366358e-01 -4.6284799e-03 
-4.4988388e-01 -4.1120481e-01 -4.9034674e-03 
-4.4182003e-01 -4.0354863e-01 -9.5097702e-03 
-4.4962838e-01 -4.1129008e-01 -8.6068185e-03 
-4.3697095e-01 -3.9839211e-01 -6.2768883e-03 
-4.3675181e-01 -3.9847261e-01 -9.5408419e-03 
-4.3788862e-01 -3.9919561e-01 -5.0166282e-03 
-4.4366729e-01 -4.0495145e-01 -4.6444410e-03 
-4.3923742e-01 -4.0049759e-01 -4.4799242e-03 
-4.3717039e-01 -3.9892817e-01 -9.9324547e-03 
-4.4323301e-01 -4.0485930e-01 -8.3672376e-03 
-4.4623417e-01 -4.0753734e-01 -4.7941343e-03 
-4.3857056e-01 -4.0028596e-01 -9.4400411e-03 
-4.3553349e-01 -3.9709485e-01 -7.8336755e-03 
-4.4599041e-01 -4.0757334e-01 -7.8347847e-03 
-4.4090781e-01 -4.0217245e-01 -4.4936417e-03 
-4.4036633e-01 -4.0199846e-01 -8.4953699e-03 
-4.4965017e-01 -4.1095924e-01 -4.7815559e-03 
-4.4948155e-01 -4.1100746e-01 -7.1373014e-03 
-4.3394005e-01 -3.9534512e-01 -6.1671427e-03 
-4.3371901e-01 -3.9542747e-01 -9.4750132e-03 
-4.3466324e-01 -3.9595011e-01 -4.8674303e-03 
-4.3603620e-01 -3.9727604e-01 -4.3289731e-03 
-4.3384081e-01 -3.9558583e-01 -9.8697916e-03 
-4.3526569e-01 -3.9696774e-01 -9.3688872e-03 
-4.3249238e-01 -3.9404088e-01 -7.7588242e-03 
-4.3736741e-01 -3.9861408e-01 -4.3759565e-03 
-4.3673056e-01 -3.9832681e-01 -8.1861587e-03 
-4.4188103e-01 -4.0313706e-01 -4.3806187e-03 
-4.4593540e-01 -4.0719423e-01 -4.3213693e-03 
-4.4578660e-01 -4.0719318e-01 -5.9272922e-03 
-4.4151121e-01 -4.0296060e-01 -6.4867185e-03 
-4.3071815e-01 -3.9240769e-01 -9.3364706e-03 
-4.3089139e-01 -3.9228028e-01 -6.0570752e-03 
-4.3277797e-01 -3.9399731e-01 -4.1756695e-03 
-4.3450981e-01 -3.9573625e-01 -4.2181839e-03 
-4.3138000e-01 -3.9264646e-01 -4.7158254e-03 
-4.4941846e-01 -4.1067183e-01 -4.1841492e-03 
-4.4933587e-01 -4.1068986e-01 -5.2769291e-03 
-4.3190384e-01 -3.9359224e-01 -9.2960931e-03 
-4.3376496e-01 -3.9536732e-01 -8.3182538e-03 
-4.3045354e-01 -3.9218563e-01 -9.8058088e-03 
-4.2943370e-01 -3.9096898e-01 -7.6834490e-03 
-4.3552440e-01 -3.9674333e-01 -4.1173934e-03 
-4.2782503e-01 -3.8919783e-01 -5.9462707e-03 
-4.2760023e-01 -3.8928398e-01 -9.3427198e-03 
-4.2946103e-01 -3.9065960e-01 -4.0199901e-03 
-4.3495727e-01 -3.9636999e-01 -6.2342831e-03 
-4.2803726e-01 -3.8928321e-01 -4.5618489e-03 
-4.3084270e-01 -3.9205104e-01 -4.0995567e-03 
-4.2848319e-01 -3.9015776e-01 -9.2216646e-03 
-4.2700642e-01 -3.8872552e-01 -9.7408043e-03 
-4.3000329e-01 -3.9156842e-01 -7.9957861e-03 
-4.2635682e-01 -3.8787916e-01 -7.6077594e-03 
-4.4923463e-01 -4.1032714e-01 -2.4451986e-03 
-4.4415069e-01 -4.0521279e-01 -2.2294170e-03 
-4.2474028e-01 -3.8609684e-01 -5.8350940e-03 
-4.2451373e-01 -3.8618508e-01 -9.2761554e-03 
-4.2608336e-01 -3.8726124e-01 -3.8619232e-03 
-4.2749161e-01 -3.8868061e-01 -3.9584460e-03 
-4.2693275e-01 -3.8850424e-01 -8.1320507e-03 
-4.2463291e-01 -3.8585833e-01 -4.4054934e-03 
-4.2500201e-01 -3.8666263e-01 -9.1455746e-03 
-4.2326155e-01 -3.8477084e-01 -7.5316126e-03 
-4.3906686e-01 -4.0009883e-01 -2.0138861e-03 
-4.2823857e-01 -3.8942555e-01 -3.9226250e-03 
-4.2349803e-01 -3.8520399e-01 -9.6743880e-03 
-4.3138912e-01 -3.9253914e-01 -3.4566415e-03 
-4.3133429e-01 -3.9259487e-01 -4.6603759e-03 
-4.2817557e-01 -3.8955030e-01 -5.9670471e-03 
-4.2158249e-01 -3.8325766e-01 -9.3792537e-03 
-4.2163700e-01 -3.8297775e-01 -5.7236375e-03 
-4.2407894e-01 -3.8524863e-01 -3.8153550e-03 
-4.2264327e-01 -3.8380024e-01 -3.7014193e-03 
-4.3398365e-01 -3.9498585e-01 -1.7988132e-03 
-4.2116544e-01 -3.8237011e-01 -4.2463988e-03 
-4.2303729e-01 -3.8457051e-01 -7.7951662e-03 
-4.2145818e-01 -3.8310495e-01 -9.0679266e-03 
-4.2014778e-01 -3.8164422e-01 -7.4551012e-03 
-4.1992626e-01 -3.8161901e-01 -9.6066846e-03 
-4.2630854e-01 -3.8742906e-01 -3.2369704e-03 
-4.2100608e-01 -3.8215452e-01 -3.6434992e-03 
-4.1851500e-01 -3.7984020e-01 -5.6114588e-03 
-4.1829747e-01 -3.7996152e-01 -9.3259215e-03 
-4.1913870e-01 -3.8027477e-01 -3.5386197e-03 
-4.1985521e-01 -3.8139534e-01 -7.9361880e-03 
-4.2890242e-01 -3.8987565e-01 -1.5847922e-03 
-4.2211294e-01 -3.8325581e-01 -3.5632332e-03 
-4.1763252e-01 -3.7881637e-01 -4.0850467e-03 
-4.1701469e-01 -3.7849870e-01 -7.3782401e-03 
-4.1785014e-01 -3.7948278e-01 -8.9881420e-03 
-4.2115250e-01 -3.8248813e-01 -5.6834267e-03 
-4.1628909e-01 -3.7796894e-01 -9.5375050e-03 
-4.1537383e-01 -3.7668356e-01 -5.4991259e-03 
-4.1497728e-01 -3.7662485e-01 -9.2145549e-03 
-4.1706100e-01 -3.7819198e-01 -3.5232680e-03 
-4.1556767e-01 -3.7668279e-01 -3.3734224e-03 
-4.2382091e-01 -3.8476524e-01 -1.3711085e-03 
-4.1386271e-01 -3.7533441e-01 -7.3007960e-03 
-4.1581753e-01 -3.7731844e-01 -7.5839530e-03 
-4.1403216e-01 -3.7519553e-01 -3.9213388e-03 
-4.1417539e-01 -3.7579438e-01 -8.9067956e-03 
-4.1258490e-01 -3.7425172e-01 -9.4665885e-03 
-4.1221362e-01 -3.7350816e-01 -5.3864890e-03 
-4.1197991e-01 -3.7360340e-01 -9.0068607e-03 
-4.1387004e-01 -3.7497947e-01 -3.3445954e-03 
-4.1502848e-01 -3.7613273e-01 -3.2713907e-03 
-4.1192809e-01 -3.7302253e-01 -3.2062435e-03 
-4.1251674e-01 -3.7402546e-01 -7.7301064e-03 
-4.1069198e-01 -3.7215120e-01 -7.2226450e-03 
-4.1874209e-01 -3.7965852e-01 -1.1586678e-03 
-4.1387233e-01 -3.7516782e-01 -5.3826510e-03 
-4.1036263e-01 -3.7150568e-01 -3.7553769e-03 
-4.1043282e-01 -3.7203768e-01 -8.8228863e-03 
-4.0889350e-01 -3.7050077e-01 -8.8804392e-03 
-4.0903446e-01 -3.7031436e-01 -5.2729459e-03 
-4.0881157e-01 -3.7046534e-01 -9.3946485e-03 
-4.0977323e-01 -3.7086582e-01 -3.2240136e-03 
-4.0750158e-01 -3.6894909e-01 -7.1444660e-03 
-4.0821844e-01 -3.6929256e-01 -3.0367943e-03 
-4.0832913e-01 -3.6979795e-01 -7.3607601e-03 
-4.0662134e-01 -3.6774424e-01 -3.5869475e-03 
-4.0662038e-01 -3.6821148e-01 -8.7379320e-03 
-4.1107881e-01 -3.7211454e-01 -2.5838241e-03 
-4.1366616e-01 -3.7455589e-01 -9.4745832e-04 
-4.0583557e-01 -3.6710030e-01 -5.1591229e-03 
-4.0559825e-01 -3.6719909e-01 -8.8697709e-03 
-4.0496677e-01 -3.6660796e-01 -9.3212267e-03 
-4.0645713e-01 -3.6752853e-01 -3.0379328e-03 
-4.0767109e-01 -3.6873752e-01 -2.9698827e-03 
-4.0429175e-01 -3.6572725e-01 -7.0654531e-03 
-4.0443534e-01 -3.6548921e-01 -2.8646940e-03 
-4.0490246e-01 -3.6638010e-01 -7.5127096e-03 
-4.0632039e-01 -3.6757621e-01 -5.0636013e-03 
-4.0265870e-01 -3.6426306e-01 -8.9569557e-03 
-4.0490896e-01 -3.6613747e-01 -4.7829975e-03 
-4.0269357e-01 -3.6396509e-01 -5.2780895e-03 
-4.0280646e-01 -3.6390921e-01 -3.4160942e-03 
-4.0273431e-01 -3.6431223e-01 -8.6499564e-03 
-4.0859255e-01 -3.6945575e-01 -7.3758845e-04 
-4.0104836e-01 -3.6267754e-01 -9.2456033e-03 
-4.0106246e-01 -3.6248684e-01 -6.9861459e-03 
-4.0219784e-01 -3.6325336e-01 -2.9167028e-03 
-4.0057743e-01 -3.6161098e-01 -2.6905893e-03 
-3.9919052e-01 -3.6078873e-01 -8.9320727e-03 
-3.9937910e-01 -3.6061540e-01 -4.9314154e-03 
-4.0055379e-01 -3.6199096e-01 -7.1253306e-03 
-3.9891571e-01 -3.5999864e-01 -3.2423956e-03 
-3.9877325e-01 -3.6033851e-01 -8.5605532e-03 
-3.9781338e-01 -3.5922664e-01 -6.9067357e-03 
-4.0352234e-01 -3.6436081e-01 -5.2956346e-04 
-3.9705402e-01 -3.5867149e-01 -9.1686361e-03 
-4.0009689e-01 -3.6111704e-01 -2.5565780e-03 
-3.9829737e-01 -3.5933402e-01 -2.7601714e-03 
-3.9612070e-01 -3.5734403e-01 -4.8166127e-03 
-3.9664191e-01 -3.5765579e-01 -2.5148524e-03 
-3.9699301e-01 -3.5844067e-01 -7.2831647e-03 
-3.9567015e-01 -3.5725677e-01 -8.8445498e-03 
-3.9847752e-01 -3.5969320e-01 -4.7250330e-03 
-3.9494643e-01 -3.5600981e-01 -3.0670753e-03 
-3.9454302e-01 -3.5594648e-01 -6.8270653e-03 
-3.9473569e-01 -3.5628867e-01 -8.4678642e-03 
-3.9491341e-01 -3.5594070e-01 -2.6845082e-03 
-3.9298216e-01 -3.5458902e-01 -9.0893507e-03 
-3.9284188e-01 -3.5405248e-01 -4.7023771e-03 
-3.9259678e-01 -3.5415745e-01 -8.5913800e-03 
-3.9845806e-01 -3.5927349e-01 -3.2366117e-04 
-3.9587921e-01 -3.5683978e-01 -1.9451940e-03 
-3.9262733e-01 -3.5362217e-01 -2.3374278e-03 
-3.9143732e-01 -3.5280257e-01 -6.4278799e-03 
-3.9247492e-01 -3.5388210e-01 -6.8762270e-03 
-3.9125341e-01 -3.5264775e-01 -6.7471093e-03 
-3.9089721e-01 -3.5194278e-01 -2.8912635e-03 
-3.9062005e-01 -3.5216111e-01 -8.3719017e-03 
-3.8954318e-01 -3.5074216e-01 -4.5877481e-03 
-3.8929665e-01 -3.5084492e-01 -8.4692370e-03 
-3.9025751e-01 -3.5126010e-01 -2.4448284e-03 
-3.8883069e-01 -3.5042793e-01 -9.0076178e-03 
-3.9140791e-01 -3.5237357e-01 -2.0353203e-03 
-3.9109042e-01 -3.5222167e-01 -3.8591973e-03 
-3.9339632e-01 -3.5418838e-01 -1.1994844e-04 
-3.8853201e-01 -3.4950867e-01 -2.1587063e-03 
-3.8794413e-01 -3.4932986e-01 -6.6654333e-03 
-3.8831773e-01 -3.4971118e-01 -6.7449356e-03 
-3.8676631e-01 -3.4779435e-01 -2.7130977e-03 
-3.8629380e-01 -3.4785351e-01 -8.6076362e-03 
-3.8622597e-01 -3.4741420e-01 -4.4740024e-03 
-3.8642278e-01 -3.4795442e-01 -8.2752183e-03 
-3.8611621e-01 -3.4710285e-01 -2.2836525e-03 
-3.8459867e-01 -3.4618717e-01 -8.9245653e-03 
-3.8461715e-01 -3.4599409e-01 -6.5839412e-03 
-3.8435224e-01 -3.4531274e-01 -1.9784565e-03 
-3.8602763e-01 -3.4714317e-01 -3.7021809e-03 
-3.8588053e-01 -3.4683877e-01 -1.9711498e-03 
-3.8834321e-01 -3.4911519e-01 8.0493788e-05 
-3.8407812e-01 -3.4545931e-01 -6.6112410e-03 
-3.8263941e-01 -3.4417668e-01 -8.3769271e-03 
-3.8285926e-01 -3.4405839e-01 -4.6098800e-03 
-3.8255000e-01 -3.4356281e-01 -2.5320728e-03 
-3.8214356e-01 -3.4366626e-01 -8.1746187e-03 
-3.8126844e-01 -3.4263816e-01 -6.5029901e-03 
-3.8243774e-01 -3.4341720e-01 -2.1961832e-03 
-3.8028219e-01 -3.4186339e-01 -8.8387178e-03 
-3.8008711e-01 -3.4103248e-01 -1.7965205e-03 
-3.7953168e-01 -3.4070000e-01 -4.2440440e-03 
-3.7927842e-01 -3.4081104e-01 -8.3049871e-03 
-3.7975490e-01 -3.4112501e-01 -6.4731520e-03 
-3.8120595e-01 -3.4229422e-01 -3.3905425e-03 
-3.8329878e-01 -3.4405285e-01 2.7917488e-04 
-3.7824771e-01 -3.3924583e-01 -2.3498035e-03 
-3.8055003e-01 -3.4147894e-01 -1.6288270e-03 
-3.7789899e-01 -3.3926401e-01 -6.4231781e-03 
-3.7777904e-01 -3.3929446e-01 -8.0714943e-03 
-3.7795296e-01 -3.3892068e-01 -2.0354586e-03 
-3.7615293e-01 -3.3731395e-01 -4.1298084e-03 
-3.7589794e-01 -3.3742785e-01 -8.2330192e-03 
-3.7587962e-01 -3.3745575e-01 -8.7515218e-03 
-3.7573329e-01 -3.3666524e-01 -1.6128466e-03 
-3.7534520e-01 -3.3670616e-01 -6.3312044e-03 
-3.7450951e-01 -3.3587131e-01 -6.3415957e-03 
-3.7639132e-01 -3.3748382e-01 -3.3939220e-03 
-3.7826380e-01 -3.3900231e-01 4.7444549e-04 
-3.7385505e-01 -3.3484069e-01 -2.1656810e-03 
-3.7332633e-01 -3.3483678e-01 -7.9658329e-03 
-3.7565175e-01 -3.3656412e-01 -1.3989160e-03 
-3.7275422e-01 -3.3390865e-01 -4.0159160e-03 
-3.7249824e-01 -3.3402500e-01 -8.1606861e-03 
-3.7331408e-01 -3.3427119e-01 -1.8619425e-03 
-3.7138742e-01 -3.3296135e-01 -8.6621419e-03 
-3.7110054e-01 -3.3245832e-01 -6.2587480e-03 
-3.7128738e-01 -3.3220860e-01 -1.4277872e-03 
-3.7084588e-01 -3.3219954e-01 -6.1853626e-03 
-3.6933637e-01 -3.3048558e-01 -3.9017042e-03 
-3.6907780e-01 -3.3060190e-01 -8.0890348e-03 
-3.6936912e-01 -3.3034542e-01 -1.9791480e-03 
-3.7323868e-01 -3.3396477e-01 6.6591892e-04 
-3.6878270e-01 -3.3029073e-01 -7.8573488e-03 
-3.7070820e-01 -3.3180565e-01 -3.3685125e-03 
-3.7079287e-01 -3.3168980e-01 -1.1640637e-03 
-3.6766994e-01 -3.2902640e-01 -6.1777588e-03 
-3.6860487e-01 -3.2955363e-01 -1.6883017e-03 
-3.6680323e-01 -3.2837760e-01 -8.5696056e-03 
-3.6674765e-01 -3.2766047e-01 -1.2426336e-03 
-3.6692387e-01 -3.2824388e-01 -5.7353172e-03 
-3.6589497e-01 -3.2704136e-01 -3.7874109e-03 
-3.6563677e-01 -3.2716238e-01 -8.0138603e-03 
-3.6478826e-01 -3.2575771e-01 -1.7927777e-03 
-3.6822435e-01 -3.2893956e-01 8.5815223e-04 
-3.6421984e-01 -3.2557726e-01 -6.0925847e-03 
-3.6414701e-01 -3.2565501e-01 -7.7461004e-03 
-3.6588067e-01 -3.2677114e-01 -9.9246344e-04 
-3.6523688e-01 -3.2629299e-01 -2.8013790e-03 
-3.6390439e-01 -3.2484734e-01 -1.5165074e-03 
-3.6243603e-01 -3.2358113e-01 -3.6712557e-03 
-3.6217406e-01 -3.2370257e-01 -7.9390993e-03 
-3.6212650e-01 -3.2370338e-01 -8.4769567e-03 
-3.6211169e-01 -3.2301921e-01 -1.0568346e-03 
-3.6222801e-01 -3.2352567e-01 -5.3660059e-03 
-3.6074784e-01 -3.2210702e-01 -6.0086860e-03 
-3.6011213e-01 -3.2107630e-01 -1.6053190e-03 
-3.5979366e-01 -3.2111365e-01 -5.5435090e-03 
-3.6322176e-01 -3.2393131e-01 1.0449555e-03 
-3.5941637e-01 -3.2092708e-01 -7.6319808e-03 
-3.6104101e-01 -3.2193357e-01 -8.9705840e-04 
-3.5895491e-01 -3.2010034e-01 -3.5594467e-03 
-3.5869056e-01 -3.2022139e-01 -7.8655006e-03 
-3.5916802e-01 -3.2010779e-01 -1.3386027e-03 
-3.6026210e-01 -3.2129905e-01 -2.4606562e-03 
-3.5735288e-01 -3.1893533e-01 -8.3798245e-03 
-3.5725567e-01 -3.1861782e-01 -5.9271725e-03 
-3.5737607e-01 -3.1828108e-01 -8.6929911e-04 
-3.5737398e-01 -3.1867042e-01 -5.1778560e-03 
-3.5545224e-01 -3.1659871e-01 -3.4444612e-03 
-3.5518917e-01 -3.1672466e-01 -7.7902805e-03 
-3.5533065e-01 -3.1629556e-01 -1.4176958e-03 
-3.5822755e-01 -3.1893319e-01 1.2296373e-03 
-3.5458717e-01 -3.1610391e-01 -7.5141550e-03 
-3.5616109e-01 -3.1705290e-01 -7.3130790e-04 
-3.5374266e-01 -3.1510988e-01 -5.8421423e-03 
-3.5435572e-01 -3.1529677e-01 -1.1636320e-03 
-3.5538453e-01 -3.1640115e-01 -2.0645717e-03 
-3.5269943e-01 -3.1392723e-01 -4.2157155e-03 
-3.5247886e-01 -3.1407154e-01 -8.2830554e-03 
-3.5253701e-01 -3.1344369e-01 -6.8218872e-04 
-3.5192963e-01 -3.1308210e-01 -3.3294391e-03 
-3.5235882e-01 -3.1364855e-01 -4.8856819e-03 
-3.5117981e-01 -3.1273976e-01 -7.8778230e-03 
-3.5044783e-01 -3.1141621e-01 -1.2277303e-03 
-3.5020649e-01 -3.1158292e-01 -5.7584113e-03 
-3.5325059e-01 -3.1395823e-01 1.4083418e-03 
-3.4964195e-01 -3.1114611e-01 -7.1338997e-03 
-3.5113344e-01 -3.1203675e-01 -6.1770406e-04 
-3.4966654e-01 -3.1060895e-01 -9.6730026e-04 
-3.5066089e-01 -3.1164137e-01 -1.4416926e-03 
-3.4839624e-01 -3.0955657e-01 -3.2314810e-03 
-3.4813032e-01 -3.0968308e-01 -7.6348498e-03 
-3.4750366e-01 -3.0910927e-01 -8.1824195e-03 
-3.4761813e-01 -3.0853224e-01 -4.9765111e-04 
-3.4667543e-01 -3.0806062e-01 -5.6738667e-03 
-3.4638855e-01 -3.0768374e-01 -4.6347622e-03 
-3.4549835e-01 -3.0647594e-01 -1.0382960e-03 
-3.4829357e-01 -3.0900875e-01 1.5809464e-03 
-3.4487891e-01 -3.0604780e-01 -3.1446381e-03 
-3.4461576e-01 -3.0617672e-01 -7.5487732e-03 
-3.4469771e-01 -3.0624151e-01 -7.3125870e-03 
-3.4571117e-01 -3.0669963e-01 -1.2639217e-03 
-3.4509155e-01 -3.0600381e-01 -3.8340199e-04 
-3.4386218e-01 -3.0481878e-01 -7.6936977e-04 
-3.4316945e-01 -3.0456331e-01 -5.5884901e-03 
-3.4255269e-01 -3.0417392e-01 -8.0852043e-03 
-3.4271803e-01 -3.0364168e-01 -3.1053956e-04 
-3.4183064e-01 -3.0321875e-01 -5.3907977e-03 
-3.4138852e-01 -3.0256888e-01 -3.0612766e-03 
-3.4086528e-01 -3.0245423e-01 -7.6544350e-03 
-3.4063235e-01 -3.0161932e-01 -8.5482653e-04 
-3.4334952e-01 -3.0407652e-01 1.7512457e-03 
-3.3978689e-01 -3.0135193e-01 -7.2393860e-03 
-3.3968785e-01 -3.0109444e-01 -5.5066468e-03 
-3.3974624e-01 -3.0070955e-01 -5.9551705e-04 
-3.4041867e-01 -3.0153614e-01 -2.3356585e-03 
-3.4084836e-01 -3.0173436e-01 1.8928133e-04 
-3.3911324e-01 -3.0007765e-01 -5.7300896e-04 
-3.3767772e-01 -2.9931819e-01 -7.9853199e-03 
-3.3792001e-01 -2.9911414e-01 -2.9805067e-03 
-3.3765998e-01 -2.9924378e-01 -7.3776306e-03 
-3.3790022e-01 -2.9883370e-01 -1.3233456e-04 
-3.3696353e-01 -2.9837885e-01 -5.3689932e-03 
-3.3623326e-01 -2.9765412e-01 -5.4240241e-03 
-3.3584845e-01 -2.9684794e-01 -6.8150635e-04 
-3.3842236e-01 -2.9916379e-01 1.9243719e-03 
-3.3495456e-01 -2.9654330e-01 -7.1649742e-03 
-3.3452651e-01 -2.9614708e-01 -7.5556021e-03 
-3.3448234e-01 -2.9569200e-01 -2.9033406e-03 
-3.3497944e-01 -2.9595444e-01 -4.1588806e-04 
-3.3592823e-01 -2.9682842e-01 3.6143724e-04 
-3.3585027e-01 -2.9686576e-01 -9.1583480e-04 
-3.3288062e-01 -2.9454288e-01 -7.8869462e-03 
-3.3411834e-01 -2.9534021e-01 -3.0732972e-03 
-3.3316290e-01 -2.9411247e-01 3.8395814e-05 
-3.3280763e-01 -2.9424256e-01 -5.3443508e-03 
-3.3351201e-01 -2.9449317e-01 -3.8499199e-04 
-3.3217573e-01 -2.9362109e-01 -5.3452910e-03 
-3.3106908e-01 -2.9229301e-01 -2.8256497e-03 
-3.3114383e-01 -2.9216170e-01 -5.1171961e-04 
-3.3350292e-01 -2.9425940e-01 2.0854617e-03 
-3.3019936e-01 -2.9181510e-01 -7.0903357e-03 
-3.3008227e-01 -2.9172781e-01 -7.5013409e-03 
-3.3029339e-01 -2.9128656e-01 -2.4221183e-04 
-3.2940286e-01 -2.9085699e-01 -5.2632517e-03 
-3.3101982e-01 -2.9193369e-01 5.3071947e-04 
-3.3094066e-01 -2.9196998e-01 -7.4443960e-04 
-3.2815859e-01 -2.8984842e-01 -7.7899587e-03 
-3.2850569e-01 -2.8947610e-01 2.0216679e-04 
-3.2767880e-01 -2.8892434e-01 -2.7523483e-03 
-3.2742333e-01 -2.8905484e-01 -7.1261278e-03 
-3.2843778e-01 -2.8971884e-01 -3.2580055e-03 
-3.2861882e-01 -2.8962165e-01 -2.2958046e-04 
-3.2746455e-01 -2.8894442e-01 -5.3187408e-03 
-3.2649776e-01 -2.8796715e-01 -5.1742177e-03 
-3.2652125e-01 -2.8756189e-01 -3.5048655e-04 
-3.2602683e-01 -2.8749958e-01 -5.1826774e-03 
-3.2860339e-01 -2.8937846e-01 2.2438308e-03 
-3.2544175e-01 -2.8714022e-01 -7.6645198e-03 
-3.2552177e-01 -2.8716743e-01 -7.0142085e-03 
-3.2568863e-01 -2.8670365e-01 -7.5229938e-05 
-3.2613438e-01 -2.8707299e-01 6.9342577e-04 
-3.2605380e-01 -2.8710854e-01 -5.7765987e-04 
-3.2431826e-01 -2.8558758e-01 -2.6810321e-03 
-3.2405996e-01 -2.8571340e-01 -7.0416587e-03 
-3.2387930e-01 -2.8526372e-01 -3.9678798e-03 
-3.2351112e-01 -2.8523168e-01 -7.6906909e-03 
-3.2375556e-01 -2.8508574e-01 -3.3391188e-03 
-3.2393190e-01 -2.8492594e-01 3.5591962e-04 
-3.2356584e-01 -2.8487572e-01 -3.0825248e-03 
-3.2374853e-01 -2.8478017e-01 -7.8815421e-05 
-3.2283345e-01 -2.8435028e-01 -5.2862470e-03 
-3.2267812e-01 -2.8417498e-01 -5.1073832e-03 
-3.2209566e-01 -2.8381738e-01 -7.5788042e-03 
-3.2197699e-01 -2.8304550e-01 -2.0215150e-04 
-3.2110620e-01 -2.8276646e-01 -6.8078055e-03 
-3.2091630e-01 -2.8259897e-01 -6.9399988e-03 
-3.2372686e-01 -2.8453025e-01 2.3963563e-03 
-3.2083693e-01 -2.8234315e-01 -5.0160452e-03 
-3.2098439e-01 -2.8227687e-01 -2.6131235e-03 
-3.2116693e-01 -2.8220990e-01 8.9417765e-05 
-3.2127193e-01 -2.8224298e-01 8.5146265e-04 
-3.2119021e-01 -2.8227770e-01 -4.1565785e-04 
-3.1935927e-01 -2.8088051e-01 -5.0281086e-03 
-3.1894261e-01 -2.8069949e-01 -7.5946189e-03 
-3.1942976e-01 -2.8045586e-01 5.0364016e-04 
-3.1827414e-01 -2.7983460e-01 -5.2636927e-03 
-3.1871742e-01 -2.8005701e-01 -2.9048633e-03 
-3.1890064e-01 -2.7996561e-01 7.3024967e-05 
-3.1768069e-01 -2.7900013e-01 -2.5439393e-03 
-3.1743193e-01 -2.7895057e-01 -4.7485502e-03 
-3.1742498e-01 -2.7912936e-01 -6.8739862e-03 
-3.1751049e-01 -2.7860907e-01 -5.3916337e-05 
-3.1638646e-01 -2.7810645e-01 -6.8648318e-03 
-3.1887451e-01 -2.7971193e-01 2.5426047e-03 
-3.1671906e-01 -2.7779239e-01 2.4203505e-04 
-3.1606567e-01 -2.7761531e-01 -4.9541285e-03 
-3.1548986e-01 -2.7726394e-01 -7.4217985e-03 
-3.1477359e-01 -2.7615148e-01 -2.8722803e-03 
-3.1501141e-01 -2.7606943e-01 6.4488815e-04 
-3.1444401e-01 -2.7623901e-01 -7.4974690e-03 
-3.1643388e-01 -2.7743968e-01 1.0042426e-03 
-3.1635121e-01 -2.7747306e-01 -2.5907409e-04 
-3.1430683e-01 -2.7585238e-01 -4.6881968e-03 
-3.1439206e-01 -2.7582118e-01 -3.3738255e-03 