# vtk DataFile Version 4.0
vtk output
ASCII
DATASET UNSTRUCTURED_GRID
POINTS 6166 float
-4.3633327e-01 9.6409470e-01 4.4200001e+01 
-4.3633261e-01 9.6409082e-01 4.4079685e+01 
-3.2145375e-01 9.1276109e-01 4.4200001e+01 
-3.8566181e-01 8.4097892e-01 4.4200001e+01 
-3.3069235e-01 9.1895354e-01 4.4019413e+01 
-3.8473952e-01 8.3919770e-01 4.4024357e+01 
-4.3633196e-01 9.6408689e-01 4.3958702e+01 
-2.1293370e-01 8.4677851e-01 4.4200001e+01 
-2.9042658e-01 7.3813015e-01 4.4200001e+01 
-2.1019450e-01 8.4669626e-01 4.4077393e+01 
-2.8909999e-01 7.3605996e-01 4.4073399e+01 
-3.2963324e-01 9.1929907e-01 4.3898094e+01 
-3.8679782e-01 8.4179753e-01 4.3889645e+01 
-2.0740938e-01 8.4661204e-01 4.3952713e+01 
-4.3633130e-01 9.6408290e-01 4.3837040e+01 
-1.1677200e-01 7.7521002e-01 4.4200001e+01 
-2.8775173e-01 7.3395580e-01 4.3944717e+01 
-1.9365783e-01 6.6203654e-01 4.4200001e+01 
-1.1309985e-01 7.7540898e-01 4.4012005e+01 
-1.9181472e-01 6.5888047e-01 4.4006447e+01 
-3.2856464e-01 9.1964108e-01 4.3776085e+01 
-3.8823184e-01 8.4352189e-01 4.3765770e+01 
-2.0457739e-01 8.4652513e-01 4.3825886e+01 
-2.8638119e-01 7.3181647e-01 4.3813885e+01 
-4.3633065e-01 9.6407896e-01 4.3714680e+01 
-1.0911675e-01 7.7426714e-01 4.3886200e+01 
-2.1001574e-02 6.8269837e-01 4.4200001e+01 
-1.8902887e-01 6.5566909e-01 4.3876659e+01 
-7.8887597e-02 5.9015810e-01 4.4200001e+01 
-3.2748649e-01 9.1997939e-01 4.3653378e+01 
-3.9889076e-01 8.5876143e-01 4.3651733e+01 
-2.0169757e-01 8.4643483e-01 4.3696846e+01 
-7.2496021e-03 6.7325598e-01 4.3947758e+01 
-1.0504345e-01 7.7307969e-01 4.3758209e+01 
-2.8498772e-01 7.2964084e-01 4.3680840e+01 
-6.3224643e-02 5.7783771e-01 4.3940754e+01 
3.5808440e-02 6.2679136e-01 4.4056572e+01 
-1.8616955e-01 6.5238589e-01 4.3744686e+01 
-4.3632996e-01 9.6407503e-01 4.3591618e+01 
-9.8678423e-03 5.4892725e-01 4.4055367e+01 
-1.8652271e-02 6.8798620e-01 4.3834026e+01 
-7.9845116e-02 5.8636194e-01 4.3823372e+01 
8.7777540e-02 5.7885915e-01 4.4200001e+01 
5.3622175e-02 5.1732427e-01 4.4200001e+01 
-3.2639861e-01 9.2031354e-01 4.3529953e+01 
-3.9894739e-01 8.5844576e-01 4.3528313e+01 
-1.9876897e-01 8.4634024e-01 4.3565521e+01 
-1.0087753e-01 7.7184403e-01 4.3627972e+01 
-2.8357074e-01 7.2742778e-01 4.3545506e+01 
-1.8323407e-01 6.4902818e-01 4.3610458e+01 
-4.3632931e-01 9.6407109e-01 4.3467831e+01 
3.1033519e-03 6.6751039e-01 4.3691772e+01 
-5.3600248e-02 5.6906003e-01 4.3676846e+01 
1.2436585e-01 5.5082864e-01 4.3886215e+01 
1.7079005e-01 5.1095647e-01 4.4054855e+01 
1.4951277e-01 4.6697062e-01 4.4053665e+01 
1.0028158e-01 4.8915190e-01 4.3877911e+01 
-4.0513036e-01 8.6722642e-01 4.3405304e+01 
-3.2530096e-01 9.2064321e-01 4.3405800e+01 
-9.6616447e-02 7.7055699e-01 4.3495411e+01 
-8.4563000e-03 6.8258613e-01 4.3574005e+01 
-1.9579062e-01 8.4624058e-01 4.3431831e+01 
2.1753120e-01 4.7335833e-01 4.4200001e+01 
2.0360756e-01 4.4289169e-01 4.4200001e+01 
-1.8021962e-01 6.4559317e-01 4.3473904e+01 
-7.0636064e-02 5.7773441e-01 4.3555408e+01 
-2.8212959e-01 7.2517604e-01 4.3407806e+01 
-4.3632865e-01 9.6406716e-01 4.3343307e+01 
1.3810426e-01 5.4143524e-01 4.3628246e+01 
-3.2419339e-01 9.2096806e-01 4.3280907e+01 
-3.9903235e-01 8.5775709e-01 4.3279266e+01 
-9.2257597e-02 7.6921552e-01 4.3360443e+01 
1.1508528e-01 4.7804743e-01 4.3612068e+01 
-1.9276154e-01 8.4613472e-01 4.3295704e+01 
1.4013666e-02 6.6131532e-01 4.3426643e+01 
-1.7712323e-01 6.4207786e-01 4.3334946e+01 
-2.8066361e-01 7.2288430e-01 4.3267666e+01 
-4.3382257e-02 5.5983055e-01 4.3403778e+01 
-4.3632799e-01 9.6406323e-01 4.3218033e+01 
3.7877345e-01 3.8273901e-01 4.4200001e+01 
3.9076596e-01 3.7443376e-01 4.3993755e+01 
-3.2307580e-01 9.2128778e-01 4.3155251e+01 
-3.9906058e-01 8.5738426e-01 4.3153610e+01 
-8.7798268e-02 7.6781619e-01 4.3222996e+01 
1.9689407e-02 6.5803534e-01 4.3290459e+01 
-6.0862999e-02 5.6866169e-01 4.3278019e+01 
-1.8968078e-01 8.4602165e-01 4.3157055e+01 
-1.7394182e-01 6.3847917e-01 4.3193501e+01 
-4.3632734e-01 9.6405929e-01 4.3091995e+01 
4.0275589e-01 3.6612594e-01 4.3787510e+01 
1.2304078e-01 5.5709994e-01 4.3330139e+01 
-2.7917209e-01 7.2055119e-01 4.3125000e+01 
2.5336364e-01 4.4907436e-01 4.3468094e+01 
2.3670304e-01 4.1684708e-01 4.3469433e+01 
1.3086085e-01 4.6634668e-01 4.3336948e+01 
-3.8351217e-01 8.3473074e-01 4.3036392e+01 
-3.2194808e-01 9.2160189e-01 4.3028820e+01 
2.5518833e-02 6.5462554e-01 4.3151749e+01 
-8.3235659e-02 7.6635528e-01 4.3082981e+01 
4.1474071e-01 3.5781288e-01 4.3581264e+01 
-1.8654740e-01 8.4590012e-01 4.3015797e+01 
-3.2522827e-02 5.5011308e-01 4.3120937e+01 
-1.7067213e-01 6.3479382e-01 4.3049488e+01 
-4.3632668e-01 9.6405542e-01 4.2965172e+01 
-2.7765438e-01 7.1817529e-01 4.2979721e+01 
2.6620242e-01 4.4011977e-01 4.3261948e+01 
1.3584816e-02 6.7044950e-01 4.3025066e+01 
-3.2081014e-01 9.2191011e-01 4.2901604e+01 
-3.8160574e-01 8.3169121e-01 4.2902863e+01 
-7.8566879e-02 7.6482886e-01 4.2940315e+01 
-5.0480481e-02 5.5910730e-01 4.2990566e+01 
4.2671782e-01 3.4949207e-01 4.3375019e+01 
1.6821145e-01 5.2049083e-01 4.3083881e+01 
-1.8336046e-01 8.4576881e-01 4.2871841e+01 
-4.3632606e-01 9.6405160e-01 4.2837555e+01 
-1.6731077e-01 6.3101834e-01 4.2902817e+01 
1.4768846e-01 4.5400122e-01 4.3051926e+01 
-2.7610970e-01 7.1575516e-01 4.2831745e+01 
-3.1966189e-01 9.2221189e-01 4.2773579e+01 
-3.8560396e-01 8.3684862e-01 4.2767078e+01 
3.7660085e-02 6.4738947e-01 4.2866421e+01 
-7.3788933e-02 7.6323271e-01 4.2794899e+01 
4.3868470e-01 3.4116083e-01 4.3168777e+01 
-4.3632543e-01 9.6404779e-01 4.2709122e+01 
-2.0968946e-02 5.3986710e-01 4.2827656e+01 
-1.8011902e-01 8.4562629e-01 4.2725094e+01 
-1.6385415e-01 6.2714905e-01 4.2753403e+01 
-2.7453732e-01 7.1328926e-01 4.2680973e+01 
-3.1850323e-01 9.2250693e-01 4.2644733e+01 
-3.9907700e-01 8.5570478e-01 4.2643101e+01 
2.5504474e-02 6.6361672e-01 4.2734810e+01 
1.8471870e-01 5.0880390e-01 4.2796177e+01 
-6.8898737e-02 7.6156229e-01 4.2646645e+01 
-3.9438177e-02 5.4903054e-01 4.2692345e+01 
-4.3632481e-01 9.6404403e-01 4.2579861e+01 
4.5063871e-01 3.3281663e-01 4.2962532e+01 
1.6565691e-01 4.4095638e-01 4.2756321e+01 
-1.7682223e-01 8.4547096e-01 4.2575459e+01 
-1.6029853e-01 6.2318206e-01 4.2601143e+01 
-4.0415615e-01 8.6278629e-01 4.2516582e+01 
-3.1733403e-01 9.2279470e-01 4.2515053e+01 
-2.7293649e-01 7.1077597e-01 4.2527313e+01 
5.0482783e-02 6.3954860e-01 4.2569923e+01 
-4.3632418e-01 9.6404034e-01 4.2449757e+01 
-6.3893095e-02 7.5981271e-01 4.2495445e+01 
-8.6617703e-03 5.2904755e-01 4.2523201e+01 
-1.7346917e-01 8.4530097e-01 4.2422829e+01 
-1.5663996e-01 6.1911333e-01 4.2445942e+01 
3.0435190e-01 4.1341871e-01 4.2643494e+01 
4.6257737e-01 3.2445681e-01 4.2756287e+01 
-3.1615424e-01 9.2307472e-01 4.2384518e+01 
-3.9902648e-01 8.5475212e-01 4.2382885e+01 
-2.7130640e-01 7.0821363e-01 4.2370659e+01 
3.8079392e-02 6.5619886e-01 4.2433029e+01 
2.0230262e-01 4.9620378e-01 4.2497147e+01 
-4.3632355e-01 9.6403670e-01 4.2318787e+01 
-5.8768708e-02 7.5797862e-01 4.2341198e+01 
-2.7680276e-02 5.3838593e-01 4.2382599e+01 
1.8486446e-01 4.2715022e-01 4.2449394e+01 
-3.8436696e-01 8.3356136e-01 4.2264896e+01 
8.9545198e-02 5.3233254e-01 4.2382050e+01 
-3.3225983e-01 9.3122375e-01 4.2255634e+01 
-1.7005907e-01 8.4511453e-01 4.2267101e+01 
-1.5287429e-01 6.1493850e-01 4.2287693e+01 
4.7449806e-01 3.1607881e-01 4.2550037e+01 
-2.6964626e-01 7.0560038e-01 4.2210907e+01 
-4.3632296e-01 9.6403313e-01 4.2186939e+01 
6.4036883e-02 6.3103610e-01 4.2261456e+01 
-5.3522192e-02 7.5605446e-01 4.2183796e+01 
-3.7873057e-01 8.2541841e-01 4.2124020e+01 
-3.1376252e-01 9.2360973e-01 4.2120819e+01 
4.4639236e-03 5.1760370e-01 4.2206776e+01 
-1.6659111e-01 8.4490943e-01 4.2108162e+01 
-1.4899719e-01 6.1065292e-01 4.2126286e+01 
-4.3632239e-01 9.6402961e-01 4.2054195e+01 
4.8639825e-01 3.0768004e-01 4.2343792e+01 
-2.6795524e-01 7.0293444e-01 4.2047943e+01 
2.4746621e-01 4.6040925e-01 4.2191032e+01 
7.1105182e-02 6.2650448e-01 4.2102463e+01 
-3.1255043e-01 9.2386365e-01 4.1987617e+01 
-4.8150036e-02 7.5403398e-01 4.2023121e+01 
-1.5144684e-02 5.2712250e-01 4.2060505e+01 
-3.7995064e-01 8.2661813e-01 4.1980038e+01 
2.0541981e-01 4.1251117e-01 4.2130333e+01 
-1.6306458e-01 8.4468329e-01 4.1945896e+01 
-4.3632182e-01 9.6402621e-01 4.1920536e+01 
-1.4500406e-01 6.0625184e-01 4.1961609e+01 
1.3375351e-01 5.6370503e-01 4.1969833e+01 
-2.6623246e-01 7.0021385e-01 4.1881653e+01 
-3.1132740e-01 9.2410773e-01 4.1853493e+01 
-3.9880505e-01 8.5261923e-01 4.1851868e+01 
4.9827534e-01 2.9925787e-01 4.2137547e+01 
3.4194937e-01 3.8685825e-01 4.2025021e+01 
-4.2648647e-02 7.5191063e-01 4.1859051e+01 
-2.5401810e-01 7.9503769e-01 4.1808533e+01 
1.8480448e-02 5.0547802e-01 4.1877510e+01 
-4.3632126e-01 9.6402287e-01 4.1785946e+01 
-1.5947884e-01 8.4443361e-01 4.1780174e+01 
-1.4089009e-01 6.0172999e-01 4.1793541e+01 
-3.1009343e-01 9.2434150e-01 4.1718426e+01 
-4.0306881e-01 8.5845691e-01 4.1716179e+01 
8.5861288e-02 6.1683756e-01 4.1774368e+01 
-2.6447710e-01 6.9743657e-01 4.1711910e+01 
3.0427080e-01 4.1638452e-01 4.1839512e+01 
2.6751360e-01 3.7833902e-01 4.1830902e+01 
5.1012677e-01 2.9080975e-01 4.1931297e+01 
-3.7014309e-02 7.4967718e-01 4.1691463e+01 
-4.3632072e-01 9.6401966e-01 4.1650398e+01 
2.5847588e-02 4.9913955e-01 4.1707767e+01 
-1.5583332e-01 8.4415752e-01 4.1610870e+01 
-3.8322043e-01 8.2981020e-01 4.1595791e+01 
-3.0884841e-01 9.2456430e-01 4.1582397e+01 
-1.3665022e-01 5.9708190e-01 4.1621960e+01 
9.3565010e-02 6.1167872e-01 4.1605015e+01 
-2.6268822e-01 6.9460052e-01 4.1538593e+01 
-4.3632022e-01 9.6401656e-01 4.1513885e+01 
-3.1243213e-02 7.4732590e-01 4.1520226e+01 
2.7603787e-01 3.7115356e-01 4.1624012e+01 
2.8505871e-01 4.3281260e-01 4.1611507e+01 
5.2195001e-01 2.8233302e-01 4.1725052e+01 
3.3468332e-02 4.9260557e-01 4.1534447e+01 
-3.9853087e-01 8.5081697e-01 4.1443768e+01 
-3.2560509e-01 9.3245691e-01 4.1443577e+01 
-1.5212752e-01 8.4385180e-01 4.1437847e+01 
-1.3227913e-01 5.9230179e-01 4.1446728e+01 
-4.3631971e-01 9.6401358e-01 4.1376381e+01 
[...]
POINT_DATA 6166
FIELD FieldData 5
DISPLACEMENT 3 6166  float
2.5238439e-01 2.2973077e-01 -2.4991732e-03 
2.5105539e-01 2.2839125e-01 -2.4843365e-03 
2.5243413e-01 2.2984697e-01 -3.1985503e-03 
2.5251752e-01 2.2978830e-01 -1.6902027e-03 
2.5043312e-01 2.2782695e-01 -3.1430416e-03 
2.5057927e-01 2.2783382e-01 -1.6589857e-03 
2.4971907e-01 2.2704433e-01 -2.4694146e-03 
2.5250047e-01 2.2995786e-01 -3.6646971e-03 
2.5262547e-01 2.2988841e-01 -1.5994094e-03 
2.5114608e-01 2.2859551e-01 -3.6789875e-03 
2.5122923e-01 2.2848031e-01 -1.5754807e-03 
2.4909259e-01 2.2647730e-01 -3.1436565e-03 
2.4908853e-01 2.2633190e-01 -1.6485943e-03 
2.4976876e-01 2.2721007e-01 -3.6934973e-03 
2.4837528e-01 2.2568992e-01 -2.4544057e-03 
2.5257376e-01 2.3005696e-01 -3.9320672e-03 
2.4981001e-01 2.2704910e-01 -1.5511703e-03 
2.5270376e-01 2.2998840e-01 -1.8231384e-03 
2.5049672e-01 2.2796746e-01 -3.9517572e-03 
2.5056908e-01 2.2783543e-01 -1.7846066e-03 
2.4774458e-01 2.2512005e-01 -3.1442319e-03 
2.4771847e-01 2.2495136e-01 -1.6367163e-03 
2.4836782e-01 2.2580086e-01 -3.7082105e-03 
2.4836715e-01 2.2559404e-01 -1.5264773e-03 
2.4702394e-01 2.2432788e-01 -2.4393054e-03 
2.4910805e-01 2.2657071e-01 -3.9675948e-03 
2.5267029e-01 2.3015700e-01 -3.9621806e-03 
2.4913873e-01 2.2639333e-01 -1.7637480e-03 
2.5277629e-01 2.3010583e-01 -2.2927888e-03 
2.4638894e-01 2.2375509e-01 -3.1447602e-03 
2.4644279e-01 2.2367056e-01 -1.6743786e-03 
2.4694249e-01 2.2436708e-01 -3.7231145e-03 
2.4989352e-01 2.2736259e-01 -3.9782003e-03 
2.4769540e-01 2.2514980e-01 -3.9836532e-03 
2.4689987e-01 2.2411443e-01 -1.5013944e-03 
2.4992515e-01 2.2723556e-01 -2.2970694e-03 
2.5114429e-01 2.2861947e-01 -3.9509414e-03 
2.4768436e-01 2.2492707e-01 -1.7426735e-03 
2.4566488e-01 2.2295813e-01 -2.4241046e-03 
2.5121996e-01 2.2856593e-01 -2.5796103e-03 
2.4862163e-01 2.2608414e-01 -4.0019318e-03 
2.4862000e-01 2.2591171e-01 -2.1936770e-03 
2.5277859e-01 2.3027064e-01 -4.0101507e-03 
2.5284883e-01 2.3024087e-01 -2.9479652e-03 
2.4502552e-01 2.2238237e-01 -3.1452125e-03 
2.4508008e-01 2.2229679e-01 -1.6550932e-03 
2.4549203e-01 2.2290801e-01 -3.7382019e-03 
2.4625802e-01 2.2370398e-01 -3.9998768e-03 
2.4540748e-01 2.2260951e-01 -1.4759008e-03 
2.4620521e-01 2.2343583e-01 -1.7213335e-03 
2.4429801e-01 2.2158046e-01 -2.4087622e-03 
2.4707155e-01 2.2452287e-01 -3.9972444e-03 
2.4701884e-01 2.2430712e-01 -2.2734313e-03 
2.4934098e-01 2.2681439e-01 -4.0643737e-03 
2.5124526e-01 2.2874044e-01 -4.1549955e-03 
2.5128213e-01 2.2870901e-01 -3.4302582e-03 
2.4931896e-01 2.2670212e-01 -3.1109173e-03 
2.4371250e-01 2.2092132e-01 -1.6693491e-03 
2.4365418e-01 2.2100168e-01 -3.1456095e-03 
2.4479511e-01 2.2223245e-01 -4.0162825e-03 
2.4575481e-01 2.2319938e-01 -4.0225461e-03 
2.4401565e-01 2.2142288e-01 -3.7534633e-03 
2.5288749e-01 2.3040511e-01 -4.2715329e-03 
2.5292209e-01 2.3039331e-01 -3.7786213e-03 
2.4470052e-01 2.2191896e-01 -1.6998060e-03 
2.4566889e-01 2.2293791e-01 -2.1666926e-03 
2.4388909e-01 2.2107849e-01 -1.4500435e-03 
2.4292311e-01 2.2019489e-01 -2.3933824e-03 
2.4650066e-01 2.2395585e-01 -4.0800665e-03 
2.4227478e-01 2.1961305e-01 -3.1459806e-03 
2.4233083e-01 2.1952546e-01 -1.6160982e-03 
2.4330589e-01 2.2073449e-01 -4.0328107e-03 
2.4639331e-01 2.2375707e-01 -3.1184214e-03 
2.4251249e-01 2.1991090e-01 -3.7688327e-03 
2.4414928e-01 2.2158210e-01 -4.0162662e-03 
2.4316953e-01 2.2037560e-01 -1.6780742e-03 
2.4234404e-01 2.1952057e-01 -1.4237285e-03 
2.4401204e-01 2.2127771e-01 -2.2504143e-03 
2.4154018e-01 2.1880116e-01 -2.3778656e-03 
2.5297800e-01 2.3056963e-01 -5.0466601e-03 
2.5070786e-01 2.2828504e-01 -5.0615123e-03 
2.4088724e-01 2.1821611e-01 -3.1463236e-03 
2.4094416e-01 2.1812764e-01 -1.5962983e-03 
2.4178956e-01 2.1920930e-01 -4.0494218e-03 
2.4264860e-01 2.2007190e-01 -4.0256251e-03 
2.4261449e-01 2.1986040e-01 -2.1401257e-03 
2.4098176e-01 2.1837121e-01 -3.7842547e-03 
2.4161141e-01 2.1880504e-01 -1.6561494e-03 
2.4014896e-01 2.1739930e-01 -2.3622524e-03 
2.4843764e-01 2.2600038e-01 -5.0763283e-03 
2.4319145e-01 2.2062077e-01 -4.0508634e-03 
2.4077138e-01 2.1793507e-01 -1.3970039e-03 
2.4482621e-01 2.2229113e-01 -4.3076216e-03 
2.4487753e-01 2.2229172e-01 -3.7649649e-03 
2.4336591e-01 2.2070988e-01 -3.1288755e-03 
2.3967424e-01 2.1684052e-01 -1.5020372e-03 
2.3949148e-01 2.1681100e-01 -3.1464419e-03 
2.4112038e-01 2.1853411e-01 -4.0350081e-03 
2.4024518e-01 2.1765600e-01 -4.0661399e-03 
2.4616742e-01 2.2371571e-01 -5.0909924e-03 
2.3942256e-01 2.1680295e-01 -3.7999176e-03 
2.4089840e-01 2.1814115e-01 -2.2280787e-03 
2.4002518e-01 2.1720631e-01 -1.6338646e-03 
2.3874946e-01 2.1598910e-01 -2.3464651e-03 
2.3917021e-01 2.1632089e-01 -1.3698676e-03 
2.4255797e-01 2.2000839e-01 -4.3243957e-03 
2.3970520e-01 2.1711195e-01 -4.0632547e-03 
2.3808724e-01 2.1539758e-01 -3.1464724e-03 
2.3820378e-01 2.1535788e-01 -1.4730258e-03 
2.3867187e-01 2.1607363e-01 -4.0829335e-03 
2.3945023e-01 2.1667276e-01 -2.1138834e-03 
2.4389696e-01 2.2143009e-01 -5.1052170e-03 
2.4050927e-01 2.1792598e-01 -4.1129207e-03 
2.3783393e-01 2.1520524e-01 -3.8156193e-03 
2.3734146e-01 2.1457045e-01 -2.3305102e-03 
2.3841009e-01 2.1557869e-01 -1.6115010e-03 
2.4023047e-01 2.1755460e-01 -3.1430249e-03 
2.3753957e-01 2.1467730e-01 -1.3422865e-03 
2.3667441e-01 2.1397561e-01 -3.1464812e-03 
2.3670025e-01 2.1384451e-01 -1.4697128e-03 
2.3797779e-01 2.1537204e-01 -4.0533603e-03 
2.3706870e-01 2.1446137e-01 -4.0997146e-03 
2.4162690e-01 2.1914537e-01 -5.1193926e-03 
2.3592484e-01 2.1314342e-01 -2.3145494e-03 
2.3767099e-01 2.1489069e-01 -2.2064471e-03 
2.3621500e-01 2.1357712e-01 -3.8312795e-03 
2.3676500e-01 2.1392109e-01 -1.5887460e-03 
2.3587872e-01 2.1300349e-01 -1.3143256e-03 
2.3525313e-01 2.1254517e-01 -3.1462449e-03 
2.3531315e-01 2.1245308e-01 -1.5153845e-03 
2.3650852e-01 2.1389571e-01 -4.0828516e-03 
2.3734465e-01 2.1474171e-01 -4.1300477e-03 
2.3543476e-01 2.1281825e-01 -4.1164188e-03 
2.3616888e-01 2.1336792e-01 -2.0880636e-03 
2.3449966e-01 2.1170798e-01 -2.2985500e-03 
2.3935746e-01 2.1686171e-01 -5.1334794e-03 
2.3697998e-01 2.1428418e-01 -3.1607563e-03 
2.3456475e-01 2.1191785e-01 -3.8469634e-03 
2.3508936e-01 2.1223293e-01 -1.5660126e-03 
2.3391068e-01 2.1104291e-01 -1.5226598e-03 
2.3382312e-01 2.1110645e-01 -3.1460386e-03 
2.3418675e-01 2.1129845e-01 -1.2858404e-03 
2.3471434e-01 2.1208870e-01 -4.0708566e-03 
2.3306574e-01 2.1026371e-01 -2.2823063e-03 
2.3376927e-01 2.1114366e-01 -4.1329707e-03 
2.3432279e-01 2.1151955e-01 -2.1859517e-03 
2.3288241e-01 2.1022640e-01 -3.8625749e-03 
2.3338220e-01 2.1051323e-01 -1.5428282e-03 
2.3575644e-01 2.1316554e-01 -4.3731681e-03 
2.3708880e-01 2.1457912e-01 -5.1472527e-03 
2.3238413e-01 2.0965849e-01 -3.1458060e-03 
2.3244576e-01 2.0956460e-01 -1.4741245e-03 
2.3246256e-01 2.0956144e-01 -1.2567871e-03 
2.3318760e-01 2.1055536e-01 -4.1015884e-03 
2.3405796e-01 2.1143529e-01 -4.1474611e-03 
2.3162277e-01 2.0881081e-01 -2.2660936e-03 
2.3207080e-01 2.0943622e-01 -4.1496889e-03 
2.3276345e-01 2.0993945e-01 -2.0630988e-03 
2.3360728e-01 2.1089226e-01 -3.1826424e-03 
2.3116805e-01 2.0827138e-01 -1.3868929e-03 
2.3275675e-01 2.1004641e-01 -3.2893361e-03 
2.3095675e-01 2.0821294e-01 -3.0420078e-03 
2.3116656e-01 2.0850156e-01 -3.8781245e-03 
2.3164202e-01 2.0876089e-01 -1.5196671e-03 
2.3482092e-01 2.1229708e-01 -5.1600137e-03 
2.3070501e-01 2.0779127e-01 -1.2275248e-03 
2.3017110e-01 2.0734930e-01 -2.2497026e-03 
2.3132198e-01 2.0867676e-01 -4.0874123e-03 
2.3033857e-01 2.0769496e-01 -4.1660727e-03 
2.2962512e-01 2.0671582e-01 -1.3418576e-03 
2.2947969e-01 2.0673674e-01 -3.1444647e-03 
2.3084560e-01 2.0802006e-01 -2.1665720e-03 
2.2941646e-01 2.0674254e-01 -3.8937689e-03 
2.2986795e-01 2.0697469e-01 -1.4959709e-03 
2.2871013e-01 2.0587866e-01 -2.2330324e-03 
2.3255385e-01 2.1001682e-01 -5.1727863e-03 
2.2891320e-01 2.0598692e-01 -1.1977608e-03 
2.3071887e-01 2.0808169e-01 -4.2111897e-03 
2.2957514e-01 2.0692007e-01 -4.0953374e-03 
2.2801353e-01 2.0526260e-01 -3.1435422e-03 
2.2857133e-01 2.0591888e-01 -4.1821697e-03 
2.2922517e-01 2.0637879e-01 -2.0390050e-03 
2.2803901e-01 2.0511979e-01 -1.3244647e-03 
2.3010428e-01 2.0737065e-01 -3.2089145e-03 
2.2763085e-01 2.0494823e-01 -3.9091473e-03 
2.2723977e-01 2.0439896e-01 -2.2160937e-03 
2.2805920e-01 2.0515424e-01 -1.4724474e-03 
2.2817840e-01 2.0551354e-01 -4.0738718e-03 
2.2708604e-01 2.0414764e-01 -1.1676135e-03 
2.2653811e-01 2.0377943e-01 -3.1423781e-03 
2.2660266e-01 2.0368223e-01 -1.3895424e-03 
2.3028886e-01 2.0773934e-01 -5.1851762e-03 
2.2896342e-01 2.0633480e-01 -4.4174739e-03 
2.2676829e-01 2.0410720e-01 -4.1979202e-03 
2.2617923e-01 2.0334457e-01 -2.3412728e-03 
2.2723150e-01 2.0438468e-01 -2.1486785e-03 
2.2576043e-01 2.0291092e-01 -2.1992007e-03 
2.2580889e-01 2.0311809e-01 -3.9236420e-03 
2.2621490e-01 2.0329855e-01 -1.4492152e-03 
2.2505361e-01 2.0228741e-01 -3.1410709e-03 
2.2510549e-01 2.0217837e-01 -1.3912983e-03 
2.2597380e-01 2.0330000e-01 -4.1088965e-03 
2.2522262e-01 2.0227283e-01 -1.1372906e-03 
2.2689115e-01 2.0424058e-01 -4.3066042e-03 
2.2683936e-01 2.0411257e-01 -3.4796700e-03 
2.2802441e-01 2.0546223e-01 -5.1962882e-03 
2.2492860e-01 2.0225927e-01 -4.2130831e-03 
2.2427176e-01 2.0141408e-01 -2.1825174e-03 
2.2537078e-01 2.0251423e-01 -2.1405891e-03 
2.2394961e-01 2.0125081e-01 -3.9380766e-03 
2.2381291e-01 2.0086995e-01 -1.2796522e-03 
2.2356030e-01 2.0078696e-01 -3.1392009e-03 
2.2433349e-01 2.0140646e-01 -1.4250198e-03 
2.2411804e-01 2.0143537e-01 -4.1154176e-03 
2.2332223e-01 2.0036122e-01 -1.1062311e-03 
2.2277451e-01 1.9990833e-01 -2.1656791e-03 
2.2305048e-01 2.0037355e-01 -4.2278790e-03 
2.2457096e-01 2.0183185e-01 -3.4694395e-03 
2.2436729e-01 2.0169821e-01 -4.2482736e-03 
2.2576202e-01 2.0318814e-01 -5.2070292e-03 
2.2347277e-01 2.0060696e-01 -2.1329203e-03 
2.2212432e-01 1.9917801e-01 -1.3252057e-03 
2.2203076e-01 1.9923992e-01 -3.0243003e-03 
2.2205134e-01 1.9934559e-01 -3.9524310e-03 
2.2241454e-01 1.9947751e-01 -1.4012028e-03 
2.2126722e-01 1.9839345e-01 -2.1482124e-03 
2.2253080e-01 1.9983906e-01 -4.0959087e-03 
2.2138324e-01 1.9841196e-01 -1.0750701e-03 
2.2113335e-01 1.9844936e-01 -4.2422148e-03 
2.2054513e-01 1.9775890e-01 -3.1357890e-03 
2.2061206e-01 1.9765854e-01 -1.3032423e-03 
2.2153640e-01 1.9866213e-01 -2.1257312e-03 
2.2242001e-01 1.9967702e-01 -3.5329675e-03 
2.2350259e-01 2.0091799e-01 -5.2168481e-03 
2.2011349e-01 1.9740099e-01 -3.9663455e-03 
2.2202344e-01 1.9935000e-01 -4.3174615e-03 
2.1975020e-01 1.9686955e-01 -2.1301948e-03 
2.2045650e-01 1.9751014e-01 -1.3772299e-03 
2.2055429e-01 1.9785449e-01 -4.0968927e-03 
2.1902263e-01 1.9623117e-01 -3.1334071e-03 
2.1909033e-01 1.9613047e-01 -1.2810942e-03 
2.1940453e-01 1.9642366e-01 -1.0433019e-03 
2.1917562e-01 1.9648525e-01 -4.2561125e-03 
2.1956044e-01 1.9667865e-01 -2.1190066e-03 
2.1822344e-01 1.9533676e-01 -2.1126708e-03 
2.2025062e-01 1.9749205e-01 -3.4552668e-03 
2.2124635e-01 1.9865212e-01 -5.2254125e-03 
2.1813415e-01 1.9541596e-01 -3.9797579e-03 
2.1845795e-01 1.9550326e-01 -1.3530890e-03 
2.1984033e-01 1.9716047e-01 -4.3438980e-03 
2.1749061e-01 1.9469400e-01 -3.1307540e-03 
2.1755917e-01 1.9459300e-01 -1.2590857e-03 
2.1847859e-01 1.9577171e-01 -4.1018697e-03 
2.1738456e-01 1.9439538e-01 -1.0109982e-03 
2.1668702e-01 1.9379453e-01 -2.0953987e-03 
2.1717569e-01 1.9448008e-01 -4.2693862e-03 
2.1754327e-01 1.9465494e-01 -2.1128990e-03 
2.1594921e-01 1.9314823e-01 -3.1279726e-03 
2.1601826e-01 1.9304578e-01 -1.2364783e-03 
2.1611185e-01 1.9338919e-01 -3.9929152e-03 
2.1899375e-01 1.9639072e-01 -5.2330028e-03 
2.1641754e-01 1.9345574e-01 -1.3288150e-03 
2.1769099e-01 1.9491673e-01 -3.3769177e-03 
2.1767513e-01 1.9499029e-01 -4.3731360e-03 
2.1514082e-01 1.9224291e-01 -2.0771357e-03 
2.1636614e-01 1.9365318e-01 -4.1057812e-03 
2.1532205e-01 1.9232571e-01 -9.7865204e-04 
2.1513250e-01 1.9243257e-01 -4.2817360e-03 
2.1581298e-01 1.9293302e-01 -2.2521249e-03 
2.1439710e-01 1.9159262e-01 -3.1250820e-03 
2.1446750e-01 1.9149071e-01 -1.2149301e-03 
2.1404552e-01 1.9131926e-01 -4.0051080e-03 
2.1674387e-01 1.9413351e-01 -5.2412781e-03 
2.1358451e-01 1.9068332e-01 -2.0601139e-03 
2.1433444e-01 1.9136639e-01 -1.3043876e-03 
2.1546693e-01 1.9277550e-01 -4.3739821e-03 
2.1525931e-01 1.9249341e-01 -3.5465609e-03 
2.1423331e-01 1.9151536e-01 -4.1098548e-03 
2.1283564e-01 1.9002876e-01 -3.1224857e-03 
2.1290615e-01 1.8992585e-01 -1.1926971e-03 
2.1321644e-01 1.9021386e-01 -9.4518700e-04 
2.1304479e-01 1.9034161e-01 -4.2930990e-03 
2.1372305e-01 1.9084720e-01 -2.3439915e-03 
2.1201783e-01 1.8911308e-01 -2.0425874e-03 
2.1193480e-01 1.8920586e-01 -4.0163514e-03 
2.1193096e-01 1.8904263e-01 -2.2332449e-03 
2.1449807e-01 1.9188240e-01 -5.2485359e-03 
2.1220712e-01 1.8923421e-01 -1.2798999e-03 
2.1327062e-01 1.9057128e-01 -4.3410952e-03 
2.1126400e-01 1.8845479e-01 -3.1181909e-03 
2.1133463e-01 1.8835036e-01 -1.1700125e-03 
2.1207976e-01 1.8935868e-01 -4.1164048e-03 
2.1303697e-01 1.9027331e-01 -3.6217130e-03 
2.1106538e-01 1.8805811e-01 -9.1191236e-04 
2.1044146e-01 1.8753330e-01 -2.0237784e-03 
2.1091101e-01 1.8820590e-01 -4.3037571e-03 
2.1154523e-01 1.8866768e-01 -2.3520677e-03 
2.0968145e-01 1.8687086e-01 -3.1149245e-03 
2.0975389e-01 1.8676697e-01 -1.1476072e-03 
2.0977533e-01 1.8704605e-01 -4.0266570e-03 
2.1225561e-01 1.8963569e-01 -5.2549522e-03 
2.1003400e-01 1.8705784e-01 -1.2554274e-03 
2.1107498e-01 1.8837236e-01 -4.3395637e-03 
2.0885417e-01 1.8594483e-01 -2.0060265e-03 
2.0990412e-01 1.8718159e-01 -4.1207480e-03 
2.1086034e-01 1.8810329e-01 -3.7231932e-03 
2.0868191e-01 1.8583642e-01 -2.7208857e-03 
2.0886771e-01 1.8585755e-01 -8.7713549e-04 
2.0872907e-01 1.8602377e-01 -4.3130796e-03 
2.0808895e-01 1.8527859e-01 -3.1111317e-03 
2.0930059e-01 1.8642695e-01 -2.4034516e-03 
2.0799589e-01 1.8500036e-01 -1.0425964e-03 
2.0756814e-01 1.8483941e-01 -4.0367120e-03 
2.0725627e-01 1.8434620e-01 -1.9875374e-03 
2.1001817e-01 1.8739636e-01 -5.2601234e-03 
2.0784266e-01 1.8487559e-01 -1.3472671e-03 
2.0879433e-01 1.8608846e-01 -4.3141283e-03 
2.0775345e-01 1.8503174e-01 -4.1375132e-03 
2.0876369e-01 1.8602426e-01 -3.9312947e-03 
2.0649047e-01 1.8368039e-01 -3.1001905e-03 
2.0656355e-01 1.8357530e-01 -1.1042615e-03 
2.0662157e-01 1.8360992e-01 -8.4238878e-04 
2.0650674e-01 1.8380271e-01 -4.3210457e-03 
2.0565911e-01 1.8274893e-01 -1.9695489e-03 
2.0661691e-01 1.8374592e-01 -2.4224818e-03 
2.0532906e-01 1.8260299e-01 -4.0457039e-03 
2.0778669e-01 1.8516473e-01 -5.2629691e-03 
2.0489724e-01 1.8208681e-01 -3.0841117e-03 
2.0497090e-01 1.8198277e-01 -1.0866415e-03 
2.0557158e-01 1.8259259e-01 -1.1884657e-03 
2.0653519e-01 1.8379694e-01 -3.9355615e-03 
2.0607989e-01 1.8337633e-01 -4.3274160e-03 
2.0513652e-01 1.8241711e-01 -4.1368916e-03 
2.0407192e-01 1.8116257e-01 -1.9520688e-03 
2.0438452e-01 1.8137306e-01 -8.0678047e-04 
2.0428362e-01 1.8158267e-01 -4.3302029e-03 
2.0448734e-01 1.8158305e-01 -2.0098710e-03 
2.0331512e-01 1.8050572e-01 -3.0668685e-03 
2.0332953e-01 1.8033448e-01 -9.7758416e-04 
2.0312542e-01 1.8040279e-01 -4.0535228e-03 
2.0555912e-01 1.8293856e-01 -5.2653374e-03 
2.0334859e-01 1.8037002e-01 -1.1428025e-03 
2.0249546e-01 1.7958753e-01 -1.9338044e-03 
2.0324905e-01 1.8053330e-01 -4.1524223e-03 
2.0406979e-01 1.8128502e-01 -3.3690992e-03 
2.0427310e-01 1.8158944e-01 -4.5210742e-03 
2.0322932e-01 1.8051378e-01 -4.1509862e-03 
2.0217936e-01 1.7917003e-01 -7.7322079e-04 
2.0174237e-01 1.7893498e-01 -3.0494218e-03 
2.0181613e-01 1.7883191e-01 -1.0519456e-03 
2.0209584e-01 1.7939842e-01 -4.3373280e-03 
2.0228030e-01 1.7937468e-01 -1.9425660e-03 
2.0092921e-01 1.7802469e-01 -1.9162804e-03 
2.0095666e-01 1.7823873e-01 -4.0591173e-03 
2.0333615e-01 1.8071954e-01 -5.2691181e-03 
2.0115817e-01 1.7818154e-01 -1.0987250e-03 
2.0047155e-01 1.7748009e-01 -9.1950380e-04 
2.0018145e-01 1.7737693e-01 -3.0310478e-03 
2.0107692e-01 1.7836551e-01 -4.1614748e-03 
2.0205338e-01 1.7937335e-01 -4.5245294e-03 
2.0208901e-01 1.7935784e-01 -3.9423578e-03 
2.0000635e-01 1.7700069e-01 -7.4024126e-04 
2.0116451e-01 1.7834710e-01 -2.9370447e-03 
1.9994234e-01 1.7725070e-01 -4.3428638e-03 
1.9937445e-01 1.7647256e-01 -1.8983480e-03 
2.0070428e-01 1.7799307e-01 -4.1506989e-03 
2.0010564e-01 1.7720070e-01 -1.8776422e-03 
1.9863001e-01 1.7582850e-01 -3.0134125e-03 
1.9882153e-01 1.7611074e-01 -4.0639872e-03 
2.0111437e-01 1.7850094e-01 -5.2691731e-03 
1.9899967e-01 1.7602696e-01 -1.0559806e-03 
1.9846942e-01 1.7548099e-01 -8.7289984e-04 
1.9893923e-01 1.7623504e-01 -4.1695647e-03 
1.9782807e-01 1.7493142e-01 -1.8810888e-03 
1.9983549e-01 1.7715953e-01 -4.5270603e-03 
1.9987029e-01 1.7714363e-01 -3.9447336e-03 
1.9786470e-01 1.7486535e-01 -7.0764922e-04 
1.9782247e-01 1.7513874e-01 -4.3472257e-03 
1.9708866e-01 1.7429230e-01 -2.9940519e-03 
1.9716251e-01 1.7419085e-01 -1.0015158e-03 
1.9856989e-01 1.7574619e-01 -2.7647254e-03 
1.9849384e-01 1.7578878e-01 -4.1477596e-03 
1.9796294e-01 1.7506100e-01 -1.8146734e-03 
1.9699848e-01 1.7410417e-01 -1.8709481e-03 
1.9672015e-01 1.7401844e-01 -4.0670414e-03 
1.9629321e-01 1.7340223e-01 -1.8638886e-03 
1.9889762e-01 1.7628863e-01 -5.2684676e-03 
1.9648269e-01 1.7349081e-01 -7.2279829e-04 
1.9687280e-01 1.7390592e-01 -1.0146288e-03 
1.9683523e-01 1.7413966e-01 -4.1768574e-03 
1.9762436e-01 1.7495573e-01 -4.5279078e-03 
1.9765817e-01 1.7493947e-01 -3.9462745e-03 
1.9555876e-01 1.7276874e-01 -2.9744429e-03 
1.9563100e-01 1.7266636e-01 -9.8563847e-04 
1.9564801e-01 1.7280462e-01 -2.3799229e-03 
1.9575337e-01 1.7276227e-01 -6.7735073e-04 
1.9577059e-01 1.7295124e-01 -2.6625784e-03 
1.9573706e-01 1.7306212e-01 -4.3493477e-03 
1.9636346e-01 1.7355077e-01 -2.7691976e-03 
1.9628964e-01 1.7359357e-01 -4.1433955e-03 
1.9585188e-01 1.7295513e-01 -1.7546625e-03 
1.9476955e-01 1.7188515e-01 -1.8456855e-03 
1.9495678e-01 1.7197235e-01 -7.0682081e-04 
1.9465223e-01 1.7196035e-01 -4.0671118e-03 
1.9424978e-01 1.7129858e-01 -1.0450464e-03 
1.9477518e-01 1.7181681e-01 -9.7400486e-04 
1.9668749e-01 1.7408642e-01 -5.2664140e-03 
1.9440925e-01 1.7152733e-01 -1.8536076e-03 
1.9403937e-01 1.7125557e-01 -2.9547443e-03 
1.9476561e-01 1.7208099e-01 -4.1839443e-03 
1.9541964e-01 1.7276160e-01 -4.5276354e-03 
1.9545260e-01 1.7274499e-01 -3.9467840e-03 
1.9325635e-01 1.7038037e-01 -1.8291622e-03 
1.9367337e-01 1.7069297e-01 -6.4706593e-04 
1.9368221e-01 1.7101879e-01 -4.3500699e-03 
1.9377080e-01 1.7088127e-01 -1.6938000e-03 
1.9416304e-01 1.7136252e-01 -2.7747287e-03 
1.9409144e-01 1.7140679e-01 -4.1393465e-03 
1.9253097e-01 1.6975515e-01 -2.9356340e-03 
1.9281644e-01 1.6995144e-01 -1.9224552e-03 
1.9260238e-01 1.6965505e-01 -9.5500395e-04 
1.9261546e-01 1.6993575e-01 -4.0676524e-03 
1.9270879e-01 1.6976027e-01 -9.3491114e-04 
1.9448450e-01 1.7189376e-01 -5.2626142e-03 
1.9272670e-01 1.7005411e-01 -4.1884608e-03 
1.9175333e-01 1.6888638e-01 -1.8113914e-03 
1.9193767e-01 1.6897081e-01 -6.7215104e-04 
1.9166492e-01 1.6887669e-01 -2.7371596e-03 
1.9166124e-01 1.6900985e-01 -4.3495004e-03 
1.9162261e-01 1.6865407e-01 -6.1764813e-04 
1.9322202e-01 1.7057583e-01 -4.5258049e-03 
1.9325419e-01 1.7055875e-01 -3.9456300e-03 
1.9135289e-01 1.6849615e-01 -1.9015180e-03 
1.9119602e-01 1.6839266e-01 -2.5045623e-03 
1.9103161e-01 1.6826506e-01 -2.9156783e-03 
1.9110335e-01 1.6816638e-01 -9.3915040e-04 
1.9171877e-01 1.6883856e-01 -1.6362718e-03 
1.9196837e-01 1.6918296e-01 -2.7771930e-03 
1.9189875e-01 1.6922754e-01 -4.1335383e-03 
1.9061105e-01 1.6794474e-01 -4.0659700e-03 
1.9025999e-01 1.6740397e-01 -1.7944449e-03 
1.9044319e-01 1.6748744e-01 -6.5590563e-04 
1.9067250e-01 1.6773741e-01 -8.9782901e-04 
1.9071871e-01 1.6806012e-01 -4.1938024e-03 
1.9228779e-01 1.6970894e-01 -5.2574067e-03 
1.8954246e-01 1.6678637e-01 -2.8956970e-03 
1.8961482e-01 1.6668911e-01 -9.2364405e-04 
1.8958257e-01 1.6678101e-01 -2.3797967e-03 
1.8967046e-01 1.6703396e-01 -4.3476238e-03 
1.8960039e-01 1.6664654e-01 -5.8747228e-04 
1.9102955e-01 1.6839713e-01 -4.5226528e-03 
1.9106105e-01 1.6837972e-01 -3.9433707e-03 
1.8877651e-01 1.6593210e-01 -1.7787366e-03 