# vtk DataFile Version 4.0
vtk output
ASCII
DATASET UNSTRUCTURED_GRID
POINTS 6166 float
-4.3633327e-01 9.6409470e-01 4.4200001e+01 
-4.3633261e-01 9.6409082e-01 4.4079685e+01 
-3.2145375e-01 9.1276109e-01 4.4200001e+01 
-3.8566181e-01 8.4097892e-01 4.4200001e+01 
-3.3069235e-01 9.1895354e-01 4.4019413e+01 
-3.8473952e-01 8.3919770e-01 4.4024357e+01 
-4.3633196e-01 9.6408689e-01 4.3958702e+01 
-2.1293370e-01 8.4677851e-01 4.4200001e+01 
-2.9042658e-01 7.3813015e-01 4.4200001e+01 
-2.1019450e-01 8.4669626e-01 4.4077393e+01 
-2.8909999e-01 7.3605996e-01 4.4073399e+01 
-3.2963324e-01 9.1929907e-01 4.3898094e+01 
-3.8679782e-01 8.4179753e-01 4.3889645e+01 
-2.0740938e-01 8.4661204e-01 4.3952713e+01 
-4.3633130e-01 9.6408290e-01 4.3837040e+01 
-1.1677200e-01 7.7521002e-01 4.4200001e+01 
-2.8775173e-01 7.3395580e-01 4.3944717e+01 
-1.9365783e-01 6.6203654e-01 4.4200001e+01 
-1.1309985e-01 7.7540898e-01 4.4012005e+01 
-1.9181472e-01 6.5888047e-01 4.4006447e+01 
-3.2856464e-01 9.1964108e-01 4.3776085e+01 
-3.8823184e-01 8.4352189e-01 4.3765770e+01 
-2.0457739e-01 8.4652513e-01 4.3825886e+01 
-2.8638119e-01 7.3181647e-01 4.3813885e+01 
-4.3633065e-01 9.6407896e-01 4.3714680e+01 
-1.0911675e-01 7.7426714e-01 4.3886200e+01 
-2.1001574e-02 6.8269837e-01 4.4200001e+01 
-1.8902887e-01 6.5566909e-01 4.3876659e+01 
-7.8887597e-02 5.9015810e-01 4.4200001e+01 
-3.2748649e-01 9.1997939e-01 4.3653378e+01 
-3.9889076e-01 8.5876143e-01 4.3651733e+01 
-2.0169757e-01 8.4643483e-01 4.3696846e+01 
-7.2496021e-03 6.7325598e-01 4.3947758e+01 
-1.0504345e-01 7.7307969e-01 4.3758209e+01 
-2.8498772e-01 7.2964084e-01 4.3680840e+01 
-6.3224643e-02 5.7783771e-01 4.3940754e+01 
3.5808440e-02 6.2679136e-01 4.4056572e+01 
-1.8616955e-01 6.5238589e-01 4.3744686e+01 
-4.3632996e-01 9.6407503e-01 4.3591618e+01 
-9.8678423e-03 5.4892725e-01 4.4055367e+01 
-1.8652271e-02 6.8798620e-01 4.3834026e+01 
-7.9845116e-02 5.8636194e-01 4.3823372e+01 
8.7777540e-02 5.7885915e-01 4.4200001e+01 
5.3622175e-02 5.1732427e-01 4.4200001e+01 
-3.2639861e-01 9.2031354e-01 4.3529953e+01 
-3.9894739e-01 8.5844576e-01 4.3528313e+01 
-1.9876897e-01 8.4634024e-01 4.3565521e+01 
-1.0087753e-01 7.7184403e-01 4.3627972e+01 
-2.8357074e-01 7.2742778e-01 4.3545506e+01 
-1.8323407e-01 6.4902818e-01 4.3610458e+01 
-4.3632931e-01 9.6407109e-01 4.3467831e+01 
3.1033519e-03 6.6751039e-01 4.3691772e+01 
-5.3600248e-02 5.6906003e-01 4.3676846e+01 
1.2436585e-01 5.5082864e-01 4.3886215e+01 
1.7079005e-01 5.1095647e-01 4.4054855e+01 
1.4951277e-01 4.6697062e-01 4.4053665e+01 
1.0028158e-01 4.8915190e-01 4.3877911e+01 
-4.0513036e-01 8.6722642e-01 4.3405304e+01 
-3.2530096e-01 9.2064321e-01 4.3405800e+01 
-9.6616447e-02 7.7055699e-01 4.3495411e+01 
-8.4563000e-03 6.8258613e-01 4.3574005e+01 
-1.9579062e-01 8.4624058e-01 4.3431831e+01 
2.1753120e-01 4.7335833e-01 4.4200001e+01 
2.0360756e-01 4.4289169e-01 4.4200001e+01 
-1.8021962e-01 6.4559317e-01 4.3473904e+01 
-7.0636064e-02 5.7773441e-01 4.3555408e+01 
-2.8212959e-01 7.2517604e-01 4.3407806e+01 
-4.3632865e-01 9.6406716e-01 4.3343307e+01 
1.3810426e-01 5.4143524e-01 4.3628246e+01 
-3.2419339e-01 9.2096806e-01 4.3280907e+01 
-3.9903235e-01 8.5775709e-01 4.3279266e+01 
-9.2257597e-02 7.6921552e-01 4.3360443e+01 
1.1508528e-01 4.7804743e-01 4.3612068e+01 
-1.9276154e-01 8.4613472e-01 4.3295704e+01 
1.4013666e-02 6.6131532e-01 4.3426643e+01 
-1.7712323e-01 6.4207786e-01 4.3334946e+01 
-2.8066361e-01 7.2288430e-01 4.3267666e+01 
-4.3382257e-02 5.5983055e-01 4.3403778e+01 
-4.3632799e-01 9.6406323e-01 4.3218033e+01 
3.7877345e-01 3.8273901e-01 4.4200001e+01 
3.9076596e-01 3.7443376e-01 4.3993755e+01 
-3.2307580e-01 9.2128778e-01 4.3155251e+01 
-3.9906058e-01 8.5738426e-01 4.3153610e+01 
-8.7798268e-02 7.6781619e-01 4.3222996e+01 
1.9689407e-02 6.5803534e-01 4.3290459e+01 
-6.0862999e-02 5.6866169e-01 4.3278019e+01 
-1.8968078e-01 8.4602165e-01 4.3157055e+01 
-1.7394182e-01 6.3847917e-01 4.3193501e+01 
-4.3632734e-01 9.6405929e-01 4.3091995e+01 
4.0275589e-01 3.6612594e-01 4.3787510e+01 
1.2304078e-01 5.5709994e-01 4.3330139e+01 
-2.7917209e-01 7.2055119e-01 4.3125000e+01 
2.5336364e-01 4.4907436e-01 4.3468094e+01 
2.3670304e-01 4.1684708e-01 4.3469433e+01 
1.3086085e-01 4.6634668e-01 4.3336948e+01 
-3.8351217e-01 8.3473074e-01 4.3036392e+01 
-3.2194808e-01 9.2160189e-01 4.3028820e+01 
2.5518833e-02 6.5462554e-01 4.3151749e+01 
-8.3235659e-02 7.6635528e-01 4.3082981e+01 
4.1474071e-01 3.5781288e-01 4.3581264e+01 
-1.8654740e-01 8.4590012e-01 4.3015797e+01 
-3.2522827e-02 5.5011308e-01 4.3120937e+01 
-1.7067213e-01 6.3479382e-01 4.3049488e+01 
-4.3632668e-01 9.6405542e-01 4.2965172e+01 
-2.7765438e-01 7.1817529e-01 4.2979721e+01 
2.6620242e-01 4.4011977e-01 4.3261948e+01 
1.3584816e-02 6.7044950e-01 4.3025066e+01 
-3.2081014e-01 9.2191011e-01 4.2901604e+01 
-3.8160574e-01 8.3169121e-01 4.2902863e+01 
-7.8566879e-02 7.6482886e-01 4.2940315e+01 
-5.0480481e-02 5.5910730e-01 4.2990566e+01 
4.2671782e-01 3.4949207e-01 4.3375019e+01 
1.6821145e-01 5.2049083e-01 4.3083881e+01 
-1.8336046e-01 8.4576881e-01 4.2871841e+01 
-4.3632606e-01 9.6405160e-01 4.2837555e+01 
-1.6731077e-01 6.3101834e-01 4.2902817e+01 
1.4768846e-01 4.5400122e-01 4.3051926e+01 
-2.7610970e-01 7.1575516e-01 4.2831745e+01 
-3.1966189e-01 9.2221189e-01 4.2773579e+01 
-3.8560396e-01 8.3684862e-01 4.2767078e+01 
3.7660085e-02 6.4738947e-01 4.2866421e+01 
-7.3788933e-02 7.6323271e-01 4.2794899e+01 
4.3868470e-01 3.4116083e-01 4.3168777e+01 
-4.3632543e-01 9.6404779e-01 4.2709122e+01 
-2.0968946e-02 5.3986710e-01 4.2827656e+01 
-1.8011902e-01 8.4562629e-01 4.2725094e+01 
-1.6385415e-01 6.2714905e-01 4.2753403e+01 
-2.7453732e-01 7.1328926e-01 4.2680973e+01 
-3.1850323e-01 9.2250693e-01 4.2644733e+01 
-3.9907700e-01 8.5570478e-01 4.2643101e+01 
2.5504474e-02 6.6361672e-01 4.2734810e+01 
1.8471870e-01 5.0880390e-01 4.2796177e+01 
-6.8898737e-02 7.6156229e-01 4.2646645e+01 
-3.9438177e-02 5.4903054e-01 4.2692345e+01 
-4.3632481e-01 9.6404403e-01 4.2579861e+01 
4.5063871e-01 3.3281663e-01 4.2962532e+01 
1.6565691e-01 4.4095638e-01 4.2756321e+01 
-1.7682223e-01 8.4547096e-01 4.2575459e+01 
-1.6029853e-01 6.2318206e-01 4.2601143e+01 
-4.0415615e-01 8.6278629e-01 4.2516582e+01 
-3.1733403e-01 9.2279470e-01 4.2515053e+01 
-2.7293649e-01 7.1077597e-01 4.2527313e+01 
5.0482783e-02 6.3954860e-01 4.2569923e+01 
-4.3632418e-01 9.6404034e-01 4.2449757e+01 
-6.3893095e-02 7.5981271e-01 4.2495445e+01 
-8.6617703e-03 5.2904755e-01 4.2523201e+01 
-1.7346917e-01 8.4530097e-01 4.2422829e+01 
-1.5663996e-01 6.1911333e-01 4.2445942e+01 
3.0435190e-01 4.1341871e-01 4.2643494e+01 
4.6257737e-01 3.2445681e-01 4.2756287e+01 
-3.1615424e-01 9.2307472e-01 4.2384518e+01 
-3.9902648e-01 8.5475212e-01 4.2382885e+01 
-2.7130640e-01 7.0821363e-01 4.2370659e+01 
3.8079392e-02 6.5619886e-01 4.2433029e+01 
2.0230262e-01 4.9620378e-01 4.2497147e+01 
-4.3632355e-01 9.6403670e-01 4.2318787e+01 
-5.8768708e-02 7.5797862e-01 4.2341198e+01 
-2.7680276e-02 5.3838593e-01 4.2382599e+01 
1.8486446e-01 4.2715022e-01 4.2449394e+01 
-3.8436696e-01 8.3356136e-01 4.2264896e+01 
8.9545198e-02 5.3233254e-01 4.2382050e+01 
-3.3225983e-01 9.3122375e-01 4.2255634e+01 
-1.7005907e-01 8.4511453e-01 4.2267101e+01 
-1.5287429e-01 6.1493850e-01 4.2287693e+01 
4.7449806e-01 3.1607881e-01 4.2550037e+01 
-2.6964626e-01 7.0560038e-01 4.2210907e+01 
-4.3632296e-01 9.6403313e-01 4.2186939e+01 
6.4036883e-02 6.3103610e-01 4.2261456e+01 
-5.3522192e-02 7.5605446e-01 4.2183796e+01 
-3.7873057e-01 8.2541841e-01 4.2124020e+01 
-3.1376252e-01 9.2360973e-01 4.2120819e+01 
4.4639236e-03 5.1760370e-01 4.2206776e+01 
-1.6659111e-01 8.4490943e-01 4.2108162e+01 
-1.4899719e-01 6.1065292e-01 4.2126286e+01 
-4.3632239e-01 9.6402961e-01 4.2054195e+01 
4.8639825e-01 3.0768004e-01 4.2343792e+01 
-2.6795524e-01 7.0293444e-01 4.2047943e+01 
2.4746621e-01 4.6040925e-01 4.2191032e+01 
7.1105182e-02 6.2650448e-01 4.2102463e+01 
-3.1255043e-01 9.2386365e-01 4.1987617e+01 
-4.8150036e-02 7.5403398e-01 4.2023121e+01 
-1.5144684e-02 5.2712250e-01 4.2060505e+01 
-3.7995064e-01 8.2661813e-01 4.1980038e+01 
2.0541981e-01 4.1251117e-01 4.2130333e+01 
-1.6306458e-01 8.4468329e-01 4.1945896e+01 
-4.3632182e-01 9.6402621e-01 4.1920536e+01 
-1.4500406e-01 6.0625184e-01 4.1961609e+01 
1.3375351e-01 5.6370503e-01 4.1969833e+01 
-2.6623246e-01 7.0021385e-01 4.1881653e+01 
-3.1132740e-01 9.2410773e-01 4.1853493e+01 
-3.9880505e-01 8.5261923e-01 4.1851868e+01 
4.9827534e-01 2.9925787e-01 4.2137547e+01 
3.4194937e-01 3.8685825e-01 4.2025021e+01 
-4.2648647e-02 7.5191063e-01 4.1859051e+01 
-2.5401810e-01 7.9503769e-01 4.1808533e+01 
1.8480448e-02 5.0547802e-01 4.1877510e+01 
-4.3632126e-01 9.6402287e-01 4.1785946e+01 
-1.5947884e-01 8.4443361e-01 4.1780174e+01 
-1.4089009e-01 6.0172999e-01 4.1793541e+01 
-3.1009343e-01 9.2434150e-01 4.1718426e+01 
-4.0306881e-01 8.5845691e-01 4.1716179e+01 
8.5861288e-02 6.1683756e-01 4.1774368e+01 
-2.6447710e-01 6.9743657e-01 4.1711910e+01 
3.0427080e-01 4.1638452e-01 4.1839512e+01 
2.6751360e-01 3.7833902e-01 4.1830902e+01 
5.1012677e-01 2.9080975e-01 4.1931297e+01 
-3.7014309e-02 7.4967718e-01 4.1691463e+01 
-4.3632072e-01 9.6401966e-01 4.1650398e+01 
2.5847588e-02 4.9913955e-01 4.1707767e+01 
-1.5583332e-01 8.4415752e-01 4.1610870e+01 
-3.8322043e-01 8.2981020e-01 4.1595791e+01 
-3.0884841e-01 9.2456430e-01 4.1582397e+01 
-1.3665022e-01 5.9708190e-01 4.1621960e+01 
9.3565010e-02 6.1167872e-01 4.1605015e+01 
-2.6268822e-01 6.9460052e-01 4.1538593e+01 
-4.3632022e-01 9.6401656e-01 4.1513885e+01 
-3.1243213e-02 7.4732590e-01 4.1520226e+01 
2.7603787e-01 3.7115356e-01 4.1624012e+01 
2.8505871e-01 4.3281260e-01 4.1611507e+01 
5.2195001e-01 2.8233302e-01 4.1725052e+01 
3.3468332e-02 4.9260557e-01 4.1534447e+01 
-3.9853087e-01 8.5081697e-01 4.1443768e+01 
-3.2560509e-01 9.3245691e-01 4.1443577e+01 
-1.5212752e-01 8.4385180e-01 4.1437847e+01 
-1.3227913e-01 5.9230179e-01 4.1446728e+01 
-4.3631971e-01 9.6401358e-01 4.1376381e+01 
[...]
POINT_DATA 6166
FIELD FieldData 5
DISPLACEMENT 3 6166  float
2.6954467e+00 2.4588702e+00 -2.5134853e-01 
2.6794786e+00 2.4428239e+00 -2.4919918e-01 
2.6948481e+00 2.4582226e+00 -2.5973275e-01 
2.6960077e+00 2.4594867e+00 -2.4163708e-01 
2.6709125e+00 2.4341719e+00 -2.5610861e-01 
2.6727033e+00 2.4360688e+00 -2.3838466e-01 
2.6634221e+00 2.4266887e+00 -2.4703783e-01 
2.6944263e+00 2.4577680e+00 -2.6531845e-01 
2.6960063e+00 2.4594915e+00 -2.4054068e-01 
2.6781306e+00 2.4413908e+00 -2.6348096e-01 
2.6792092e+00 2.4426126e+00 -2.3817919e-01 
2.6547990e+00 2.4179783e+00 -2.5412819e-01 
2.6548216e+00 2.4180992e+00 -2.3605280e-01 
2.6615591e+00 2.4247360e+00 -2.6161212e-01 
2.6472754e+00 2.4104629e+00 -2.4486428e-01 
2.6941600e+00 2.4574828e+00 -2.6851967e-01 
2.6621363e+00 2.4254565e+00 -2.3577902e-01 
2.6957717e+00 2.4592412e+00 -2.4321842e-01 
2.6691756e+00 2.4323733e+00 -2.6567557e-01 
2.6700935e+00 2.4334381e+00 -2.3958483e-01 
2.6385944e+00 2.4016936e+00 -2.5213614e-01 
2.6383803e+00 2.4015768e+00 -2.3388061e-01 
2.6447029e+00 2.4077952e+00 -2.5971067e-01 
2.6447785e+00 2.4080143e+00 -2.3333913e-01 
2.6310372e+00 2.3941450e+00 -2.4267842e-01 
2.6524529e+00 2.4155664e+00 -2.6380423e-01 
2.6940689e+00 2.4573896e+00 -2.6887375e-01 
2.6528697e+00 2.4161303e+00 -2.3720790e-01 
2.6953425e+00 2.4587793e+00 -2.4884593e-01 
2.6222975e+00 2.3853159e+00 -2.5013214e-01 
2.6232162e+00 2.3863351e+00 -2.3246478e-01 
2.6275530e+00 2.3905594e+00 -2.5777543e-01 
2.6605475e+00 2.4237001e+00 -2.6493207e-01 
2.6354408e+00 2.3984690e+00 -2.6189974e-01 
2.6271272e+00 2.3902774e+00 -2.3085852e-01 
2.6608982e+00 2.4241636e+00 -2.4464884e-01 
2.6749880e+00 2.4382145e+00 -2.6638457e-01 
2.6353564e+00 2.3985317e+00 -2.3479277e-01 
2.6147058e+00 2.3777339e+00 -2.4048018e-01 
2.6758723e+00 2.4391935e+00 -2.4991314e-01 
2.6454341e+00 2.4085102e+00 -2.6335445e-01 
2.6453967e+00 2.4085922e+00 -2.4148624e-01 
2.6939554e+00 2.4572723e+00 -2.6944113e-01 
2.6947639e+00 2.4581547e+00 -2.5669843e-01 
2.6059067e+00 2.3688445e+00 -2.4811639e-01 
2.6068404e+00 2.3698802e+00 -2.3021196e-01 
2.6101005e+00 2.3730199e+00 -2.5580519e-01 
2.6181304e+00 2.3810718e+00 -2.5996074e-01 
2.6091733e+00 2.3722365e+00 -2.2833571e-01 
2.6175447e+00 2.3806336e+00 -2.3233782e-01 
2.5982795e+00 2.3612285e+00 -2.3826884e-01 
2.6265299e+00 2.3895128e+00 -2.6096588e-01 
2.6258593e+00 2.3889532e+00 -2.4004127e-01 
2.6522152e+00 2.4153209e+00 -2.6494762e-01 
2.6745121e+00 2.4377227e+00 -2.6879492e-01 
2.6749041e+00 2.4381645e+00 -2.6008111e-01 
2.6518333e+00 2.4150000e+00 -2.5337356e-01 
2.5905015e+00 2.3534603e+00 -2.2836865e-01 
2.5894201e+00 2.3522775e+00 -2.4608777e-01 
2.6005123e+00 2.3633657e+00 -2.5798589e-01 
2.6108806e+00 2.3737843e+00 -2.5934130e-01 
2.5923357e+00 2.3551667e+00 -2.5379860e-01 
2.6936693e+00 2.4569678e+00 -2.7256808e-01 
2.6940429e+00 2.4573758e+00 -2.6665503e-01 
2.5994253e+00 2.3624268e+00 -2.2984299e-01 
2.6098242e+00 2.3728464e+00 -2.3677252e-01 
2.5909073e+00 2.3538828e+00 -2.2577062e-01 
2.5817575e+00 2.3446269e+00 -2.3604548e-01 
2.6179340e+00 2.3808684e+00 -2.6090819e-01 
2.5728374e+00 2.3356149e+00 -2.4404801e-01 
2.5738025e+00 2.3366840e+00 -2.2566590e-01 
2.5825772e+00 2.3453414e+00 -2.5597376e-01 
2.6165109e+00 2.3795023e+00 -2.4910757e-01 
2.5742488e+00 2.3369915e+00 -2.5175411e-01 
2.5913014e+00 2.3541090e+00 -2.5685036e-01 
2.5809889e+00 2.3439019e+00 -2.2730692e-01 
2.5723197e+00 2.3352063e+00 -2.2316036e-01 
2.5896077e+00 2.3525255e+00 -2.3529197e-01 
2.5651381e+00 2.3279281e+00 -2.3380876e-01 
2.6929815e+00 2.4562256e+00 -2.8185704e-01 
2.6655700e+00 2.4286761e+00 -2.7865493e-01 
2.5561562e+00 2.3188527e+00 -2.4199528e-01 
2.5571377e+00 2.3199396e+00 -2.2337224e-01 
2.5643148e+00 2.3269899e+00 -2.5392291e-01 
2.5732095e+00 2.3359282e+00 -2.5473267e-01 
2.5730059e+00 2.3358505e+00 -2.3191115e-01 
2.5558298e+00 2.3184834e+00 -2.4966997e-01 
2.5622258e+00 2.3250496e+00 -2.2472861e-01 
2.5484192e+00 2.3111305e+00 -2.3155911e-01 
2.6381588e+00 2.4011273e+00 -2.7545202e-01 
2.5783820e+00 2.3411236e+00 -2.5567612e-01 
2.5534008e+00 2.3161986e+00 -2.2050543e-01 
2.5964148e+00 2.3592281e+00 -2.6100597e-01 
2.5970044e+00 2.3598564e+00 -2.5452033e-01 
2.5799584e+00 2.3427701e+00 -2.4472667e-01 
2.5416379e+00 2.3043725e+00 -2.2032364e-01 
2.5393755e+00 2.3019927e+00 -2.3992868e-01 
2.5547857e+00 2.3174155e+00 -2.5257412e-01 
2.5457149e+00 2.3083005e+00 -2.5183231e-01 
2.6107497e+00 2.3735819e+00 -2.7224770e-01 
2.5370686e+00 2.2996325e+00 -2.4754719e-01 
2.5520675e+00 2.3148067e+00 -2.3039457e-01 
2.5431247e+00 2.3058600e+00 -2.2210537e-01 
2.5316007e+00 2.2942338e+00 -2.2929604e-01 
2.5341394e+00 2.2968476e+00 -2.1780385e-01 
2.5690229e+00 2.3317006e+00 -2.5783026e-01 
2.5379610e+00 2.3005090e+00 -2.5084168e-01 
2.5224934e+00 2.2850330e+00 -2.3785004e-01 
2.5239384e+00 2.2865925e+00 -2.1779235e-01 
2.5267668e+00 2.2892625e+00 -2.4969994e-01 
2.5348635e+00 2.2975290e+00 -2.2689356e-01 
2.5833459e+00 2.3460405e+00 -2.6903948e-01 
2.5456138e+00 2.3081939e+00 -2.5238562e-01 
2.5179539e+00 2.2804279e+00 -2.4538161e-01 
2.5146790e+00 2.2772353e+00 -2.2701897e-01 
2.5236764e+00 2.2863224e+00 -2.1943934e-01 
2.5421009e+00 2.3047304e+00 -2.4023059e-01 
2.5145242e+00 2.2771447e+00 -2.1505484e-01 
2.5055079e+00 2.2679706e+00 -2.3575759e-01 
2.5059304e+00 2.2685015e+00 -2.1553479e-01 
2.5168998e+00 2.2793512e+00 -2.4812618e-01 
2.5074599e+00 2.2698655e+00 -2.4752434e-01 
2.5559435e+00 2.3185031e+00 -2.6583058e-01 
2.4976542e+00 2.2601359e+00 -2.2472993e-01 
2.5131567e+00 2.2757168e+00 -2.2533982e-01 
2.4984748e+00 2.2608600e+00 -2.4317198e-01 
2.5038679e+00 2.2664263e+00 -2.1672545e-01 
2.4945464e+00 2.2570786e+00 -2.1225847e-01 
2.4884202e+00 2.2508070e+00 -2.3365122e-01 
2.4894657e+00 2.2519608e+00 -2.1405965e-01 
2.4994304e+00 2.2617991e+00 -2.4633062e-01 
2.5074136e+00 2.2698147e+00 -2.4788447e-01 
2.4877827e+00 2.2500994e+00 -2.4530263e-01 
2.4953110e+00 2.2577984e+00 -2.2171111e-01 
2.4805274e+00 2.2429345e+00 -2.2242950e-01 
2.5285525e+00 2.2909830e+00 -2.6262167e-01 
2.5028534e+00 2.2652993e+00 -2.3560977e-01 
2.4786208e+00 2.2409189e+00 -2.4091734e-01 
2.4836922e+00 2.2461622e+00 -2.1396850e-01 
2.4726899e+00 2.2351134e+00 -2.1208408e-01 
2.4712291e+00 2.2335439e+00 -2.3153472e-01 
2.4741952e+00 2.2366395e+00 -2.0941055e-01 
2.4775591e+00 2.2398324e+00 -2.4349171e-01 
2.4632950e+00 2.2256298e+00 -2.2011402e-01 
2.4677267e+00 2.2299564e+00 -2.4303497e-01 
2.4727924e+00 2.2351766e+00 -2.2012524e-01 
2.4583797e+00 2.2205913e+00 -2.3861608e-01 
2.4631388e+00 2.2255216e+00 -2.1116042e-01 
2.4869020e+00 2.2491953e+00 -2.4829663e-01 
2.5011752e+00 2.2634814e+00 -2.5941202e-01 
2.4539306e+00 2.2161708e+00 -2.2940415e-01 
2.4550080e+00 2.2173576e+00 -2.0932434e-01 
2.4534576e+00 2.2158167e+00 -2.0651090e-01 
2.4594054e+00 2.2216005e+00 -2.4163106e-01 
2.4677417e+00 2.2299681e+00 -2.4320935e-01 
2.4459560e+00 2.2082198e+00 -2.1778737e-01 
2.4472740e+00 2.2094178e+00 -2.4072090e-01 
2.4542665e+00 2.2165809e+00 -2.1636111e-01 
2.4621334e+00 2.2244027e+00 -2.3086269e-01 
2.4394343e+00 2.2017252e+00 -2.0635815e-01 
2.4532065e+00 2.2154315e+00 -2.3105189e-01 
2.4369500e+00 2.1991274e+00 -2.2606355e-01 
2.4377389e+00 2.1998651e+00 -2.3626667e-01 
2.4421873e+00 2.2044871e+00 -2.0830648e-01 
2.4738100e+00 2.2359910e+00 -2.5619626e-01 
2.4323206e+00 2.1945977e+00 -2.0356217e-01 
2.4285121e+00 2.1907082e+00 -2.1544787e-01 
2.4366670e+00 2.1987693e+00 -2.3866165e-01 
2.4264166e+00 2.1884747e+00 -2.3835541e-01 
2.4208131e+00 2.1830363e+00 -2.0352963e-01 
2.4190176e+00 2.1811175e+00 -2.2509925e-01 
2.4308763e+00 2.1930907e+00 -2.1473886e-01 
2.4166870e+00 2.1787295e+00 -2.3387028e-01 
2.4208300e+00 2.1830492e+00 -2.0539834e-01 
2.4109595e+00 2.1730888e+00 -2.1309336e-01 
2.4464598e+00 2.2085266e+00 -2.5298086e-01 
2.4107728e+00 2.1729696e+00 -2.0055866e-01 
2.4271109e+00 2.1891677e+00 -2.3898171e-01 
2.4156120e+00 2.1776285e+00 -2.3616976e-01 
2.4013960e+00 2.1634336e+00 -2.2292800e-01 
2.4051397e+00 2.1671154e+00 -2.3593605e-01 
2.4116247e+00 2.1737745e+00 -2.1083248e-01 
2.4017763e+00 2.1639316e+00 -2.0098558e-01 
2.4198403e+00 2.1819365e+00 -2.2598031e-01 
2.3952103e+00 2.1571717e+00 -2.3141946e-01 
2.3932931e+00 2.1553614e+00 -2.1072380e-01 
2.3990571e+00 2.1611996e+00 -2.0244522e-01 
2.3980331e+00 2.1599882e+00 -2.3375030e-01 
2.3888030e+00 2.1509256e+00 -1.9750388e-01 
2.3836644e+00 2.1456416e+00 -2.2073999e-01 
2.3848000e+00 2.1468914e+00 -1.9969216e-01 
2.4191391e+00 2.1811004e+00 -2.4976677e-01 
2.4049227e+00 2.1668799e+00 -2.3874339e-01 
2.3834348e+00 2.1453314e+00 -2.3346251e-01 
2.3782718e+00 2.1402819e+00 -2.1039757e-01 
2.3873155e+00 2.1493726e+00 -2.0917822e-01 
2.3755209e+00 2.1375339e+00 -2.0834371e-01 
2.3733008e+00 2.1351895e+00 -2.2890836e-01 
2.3768592e+00 2.1389277e+00 -1.9944724e-01 
2.3658245e+00 2.1277461e+00 -2.1854016e-01 
2.3668809e+00 2.1289189e+00 -1.9752358e-01 
2.3722129e+00 2.1340749e+00 -2.3100632e-01 
2.3664002e+00 2.1284561e+00 -1.9439861e-01 
2.3804986e+00 2.1423755e+00 -2.3440495e-01 
2.3799899e+00 2.1419239e+00 -2.2435805e-01 
2.3918304e+00 2.1536844e+00 -2.4654229e-01 
2.3612926e+00 2.1231153e+00 -2.3093234e-01 
2.3576391e+00 2.1196012e+00 -2.0595761e-01 
2.3648932e+00 2.1268809e+00 -2.0633851e-01 
2.3509469e+00 2.1127653e+00 -2.2634554e-01 
2.3510609e+00 2.1130612e+00 -1.9424507e-01 
2.3478830e+00 2.1097538e+00 -2.1632442e-01 
2.3542187e+00 2.1162257e+00 -1.9638836e-01 
2.3498547e+00 2.1116462e+00 -2.2834760e-01 
2.3435585e+00 2.1055517e+00 -1.9123667e-01 
2.3396585e+00 2.1015677e+00 -2.0356016e-01 
2.3386922e+00 2.1004510e+00 -2.2834469e-01 
2.3526728e+00 2.1145232e+00 -2.2088940e-01 
2.3504522e+00 2.1122379e+00 -2.3001772e-01 
2.3645601e+00 2.1263213e+00 -2.4331927e-01 
2.3420243e+00 2.1039503e+00 -2.0344976e-01 
2.3310108e+00 2.0929492e+00 -1.9235031e-01 
2.3296909e+00 2.0915158e+00 -2.1271700e-01 
2.3281279e+00 2.0898893e+00 -2.2373076e-01 
2.3311307e+00 2.0930812e+00 -1.9328590e-01 
2.3215601e+00 2.0834260e+00 -2.0114404e-01 
2.3303587e+00 2.0921011e+00 -2.2572497e-01 
2.3202565e+00 2.0821965e+00 -1.8802330e-01 
2.3156276e+00 2.0773292e+00 -2.2570007e-01 
2.3116672e+00 2.0734484e+00 -2.1186554e-01 
2.3128517e+00 2.0747561e+00 -1.8987614e-01 
2.3186984e+00 2.0805712e+00 -2.0051844e-01 
2.3266478e+00 2.0884268e+00 -2.1847388e-01 
2.3373322e+00 2.0990129e+00 -2.4010003e-01 
2.3048403e+00 2.0665474e+00 -2.2105724e-01 
2.3218737e+00 2.0835829e+00 -2.2735649e-01 
2.3033485e+00 2.0651827e+00 -1.9870989e-01 
2.3075776e+00 2.0694809e+00 -1.9013079e-01 
2.3063376e+00 2.0680285e+00 -2.2280331e-01 
2.2933855e+00 2.0551369e+00 -2.0961155e-01 
2.2945836e+00 2.0564651e+00 -1.8739095e-01 
2.2964842e+00 2.0583823e+00 -1.8475133e-01 
2.2920802e+00 2.0537341e+00 -2.2299661e-01 
2.2949011e+00 2.0567317e+00 -1.9754158e-01 
2.2850237e+00 2.0468354e+00 -1.9627263e-01 
2.3006599e+00 2.0623932e+00 -2.1436587e-01 
2.3101516e+00 2.0717642e+00 -2.3687899e-01 
2.2810605e+00 2.0427263e+00 -2.1832401e-01 
2.2835431e+00 2.0454121e+00 -1.8692164e-01 
2.2954812e+00 2.0571365e+00 -2.2445220e-01 
2.2749939e+00 2.0367181e+00 -2.0734373e-01 
2.2762072e+00 2.0380647e+00 -1.8489644e-01 
2.2813137e+00 2.0429623e+00 -2.1981320e-01 
2.2722223e+00 2.0340941e+00 -1.8142176e-01 
2.2665882e+00 2.0283761e+00 -1.9382894e-01 
2.2680318e+00 2.0296524e+00 -2.2023064e-01 
2.2706139e+00 2.0324137e+00 -1.9451775e-01 
2.2564945e+00 2.0181999e+00 -2.0506689e-01 
2.2577176e+00 2.0195525e+00 -1.8238452e-01 
2.2567711e+00 2.0184124e+00 -2.1553284e-01 
2.2830215e+00 2.0445802e+00 -2.3365766e-01 
2.2590115e+00 2.0208609e+00 -1.8365823e-01 
2.2699792e+00 2.0316739e+00 -2.0968635e-01 
2.2693005e+00 2.0309129e+00 -2.2161463e-01 
2.2480373e+00 2.0098119e+00 -1.9136283e-01 
2.2558818e+00 2.0175014e+00 -2.1676905e-01 
2.2474561e+00 2.0093167e+00 -1.7803890e-01 
2.2434721e+00 2.0050721e+00 -2.1739638e-01 
2.2494779e+00 2.0112505e+00 -1.9363976e-01 
2.2378676e+00 1.9995662e+00 -2.0277549e-01 
2.2391109e+00 2.0009465e+00 -1.7988001e-01 
2.2319632e+00 1.9935927e+00 -2.1267186e-01 
2.2559369e+00 2.0174537e+00 -2.3045777e-01 
2.2293711e+00 1.9911507e+00 -1.8890719e-01 
2.2339754e+00 1.9958177e+00 -1.8034083e-01 
2.2427509e+00 2.0043380e+00 -2.1839684e-01 
2.2404199e+00 2.0020747e+00 -2.0814152e-01 
2.2303631e+00 1.9919668e+00 -2.1372336e-01 
2.2191370e+00 1.9808394e+00 -2.0048459e-01 
2.2203836e+00 1.9822285e+00 -1.7735821e-01 
2.2221832e+00 1.9840438e+00 -1.7458929e-01 
2.2183869e+00 1.9799818e+00 -2.1449482e-01 
2.2241347e+00 1.9858938e+00 -1.9168229e-01 
2.2105849e+00 1.9723706e+00 -1.8643188e-01 
2.2066333e+00 1.9682611e+00 -2.0974691e-01 
2.2071762e+00 1.9689456e+00 -1.8831587e-01 
2.2289114e+00 1.9904131e+00 -2.2725640e-01 
2.2084179e+00 1.9702690e+00 -1.7696913e-01 
2.2165043e+00 1.9780828e+00 -2.1482199e-01 
2.2002885e+00 1.9620003e+00 -1.9815931e-01 
2.2015402e+00 1.9633907e+00 -1.7481810e-01 
2.2046237e+00 1.9662294e+00 -2.1068956e-01 
2.2135451e+00 1.9751872e+00 -2.0579410e-01 
2.1963751e+00 1.9582540e+00 -1.7108992e-01 
2.1916885e+00 1.9534850e+00 -1.8393289e-01 
2.1927567e+00 1.9543626e+00 -2.1152881e-01 
2.1979132e+00 1.9596887e+00 -1.8861805e-01 
2.1813152e+00 1.9430435e+00 -1.9583680e-01 
2.1825931e+00 1.9444630e+00 -1.7227881e-01 
2.1807282e+00 1.9423858e+00 -2.0674652e-01 
2.2019296e+00 1.9634269e+00 -2.2405802e-01 
2.1823187e+00 1.9441979e+00 -1.7354421e-01 
2.1901195e+00 1.9517072e+00 -2.1161537e-01 
2.1726692e+00 1.9344945e+00 -1.8144019e-01 
2.1785431e+00 1.9401740e+00 -2.0759518e-01 
2.1871846e+00 1.9488342e+00 -2.0383871e-01 
2.1680908e+00 1.9298759e+00 -1.8949859e-01 
2.1700180e+00 1.9319396e+00 -1.6751663e-01 
2.1665606e+00 1.9282002e+00 -2.0848665e-01 
2.1622293e+00 1.9239979e+00 -1.9350509e-01 
2.1708145e+00 1.9326228e+00 -1.8598890e-01 
2.1612535e+00 1.9231697e+00 -1.6846499e-01 
2.1542640e+00 1.9159647e+00 -2.0368706e-01 
2.1535246e+00 1.9153942e+00 -1.7892832e-01 
2.1750288e+00 1.9365522e+00 -2.2086219e-01 
2.1556861e+00 1.9176092e+00 -1.7146632e-01 
2.1628556e+00 1.9244896e+00 -2.0802213e-01 
2.1529491e+00 1.9146173e+00 -2.0472014e-01 
2.1616316e+00 1.9233041e+00 -2.0326829e-01 
2.1430860e+00 1.9049003e+00 -1.9107966e-01 
2.1443751e+00 1.9063299e+00 -1.6719490e-01 
2.1430974e+00 1.9050776e+00 -1.6388948e-01 
2.1399112e+00 1.9016101e+00 -2.0538068e-01 
2.1343985e+00 1.8963141e+00 -1.7643079e-01 
2.1385288e+00 1.9004040e+00 -1.8235639e-01 
2.1274302e+00 1.8892032e+00 -2.0058157e-01 
2.1482229e+00 1.9097981e+00 -2.1766604e-01 
2.1240218e+00 1.8858801e+00 -1.8860973e-01 
2.1253202e+00 1.8873199e+00 -1.6471744e-01 
2.1288218e+00 1.8908225e+00 -1.6635317e-01 
2.1348591e+00 1.8965918e+00 -2.0010641e-01 
2.1302023e+00 1.8919122e+00 -2.0426083e-01 
2.1215384e+00 1.8832966e+00 -2.0095353e-01 
2.1154003e+00 1.8773663e+00 -1.7396124e-01 
2.1162999e+00 1.8783555e+00 -1.6027622e-01 
2.1133099e+00 1.8750838e+00 -2.0230779e-01 
2.1137853e+00 1.8757703e+00 -1.7444284e-01 
2.1050994e+00 1.8670179e+00 -1.8615101e-01 
2.1053848e+00 1.8674488e+00 -1.6104105e-01 
2.1010380e+00 1.8628870e+00 -1.9752370e-01 
2.1214771e+00 1.8831254e+00 -2.1448064e-01 
2.1022270e+00 1.8643206e+00 -1.6264740e-01 
2.0965345e+00 1.8585660e+00 -1.7150201e-01 
2.0990756e+00 1.8608989e+00 -1.9845743e-01 
2.1062427e+00 1.8681210e+00 -1.8987663e-01 
2.1076732e+00 1.8694447e+00 -2.0388654e-01 
2.0971313e+00 1.8589623e+00 -1.9819136e-01 
2.0898974e+00 1.8520494e+00 -1.5674950e-01 
2.0862935e+00 1.8482841e+00 -1.8370391e-01 
2.0875928e+00 1.8497216e+00 -1.5983401e-01 
2.0871480e+00 1.8489993e+00 -1.9926855e-01 
2.0874259e+00 1.8495115e+00 -1.7050405e-01 
2.0778029e+00 1.8399154e+00 -1.6907580e-01 
2.0750823e+00 1.8370231e+00 -1.9449651e-01 
2.0948033e+00 1.8565456e+00 -2.1133570e-01 
2.0760396e+00 1.8382413e+00 -1.5902443e-01 
2.0711195e+00 1.8333325e+00 -1.5630183e-01 
2.0676451e+00 1.8297174e+00 -1.8127304e-01 
2.0731473e+00 1.8350576e+00 -1.9547264e-01 
2.0810392e+00 1.8429022e+00 -2.0074609e-01 
2.0814893e+00 1.8434002e+00 -1.9380927e-01 
2.0639002e+00 1.8261638e+00 -1.5329164e-01 
2.0721409e+00 1.8341770e+00 -1.8063246e-01 
2.0614128e+00 1.8233722e+00 -1.9627199e-01 
2.0592210e+00 1.8214092e+00 -1.6666646e-01 
2.0668240e+00 1.8287618e+00 -1.9457357e-01 
2.0614755e+00 1.8236805e+00 -1.6665611e-01 
2.0491192e+00 1.8112701e+00 -1.7886890e-01 
2.0495441e+00 1.8116069e+00 -1.9152702e-01 
2.0681660e+00 1.8300002e+00 -2.0814353e-01 
2.0502532e+00 1.8125830e+00 -1.5547982e-01 
2.0471120e+00 1.8094400e+00 -1.5291834e-01 
2.0476470e+00 1.8096792e+00 -1.9254018e-01 
2.0407450e+00 1.8030386e+00 -1.6428617e-01 
2.0544512e+00 1.8164062e+00 -1.9760546e-01 
2.0548911e+00 1.8168967e+00 -1.9067322e-01 
2.0382953e+00 1.8007017e+00 -1.4990172e-01 
2.0360997e+00 1.7981923e+00 -1.9332123e-01 
2.0307188e+00 1.7929816e+00 -1.7646864e-01 
2.0320125e+00 1.7944095e+00 -1.5269697e-01 
2.0413513e+00 1.8035578e+00 -1.7492630e-01 
2.0403273e+00 1.8023922e+00 -1.9138928e-01 
2.0359235e+00 1.7982731e+00 -1.6289872e-01 
2.0277040e+00 1.7900717e+00 -1.6262332e-01 
2.0244355e+00 1.7866431e+00 -1.8859747e-01 
2.0224168e+00 1.7848158e+00 -1.6193327e-01 
2.0416160e+00 1.8035591e+00 -2.0496657e-01 
2.0227025e+00 1.7851915e+00 -1.4826141e-01 
2.0248666e+00 1.7873429e+00 -1.5201867e-01 
2.0225728e+00 1.7847446e+00 -1.8965733e-01 
2.0279706e+00 1.7900685e+00 -1.9447331e-01 
2.0283973e+00 1.7905513e+00 -1.8755592e-01 
2.0124691e+00 1.7748566e+00 -1.7409240e-01 
2.0137362e+00 1.7762557e+00 -1.5037440e-01 
2.0121741e+00 1.7745972e+00 -1.6691460e-01 
2.0130730e+00 1.7756419e+00 -1.4659856e-01 
2.0122674e+00 1.7746691e+00 -1.7030862e-01 
2.0112252e+00 1.7734632e+00 -1.9040520e-01 
2.0149279e+00 1.7773091e+00 -1.7187455e-01 
2.0139344e+00 1.7761630e+00 -1.8821773e-01 
2.0107763e+00 1.7732892e+00 -1.5924940e-01 
2.0042331e+00 1.7667589e+00 -1.5958939e-01 
2.0045052e+00 1.7671227e+00 -1.4595935e-01 
1.9997462e+00 1.7621177e+00 -1.8568559e-01 
1.9974254e+00 1.7600574e+00 -1.4919426e-01 
1.9998529e+00 1.7625113e+00 -1.4862274e-01 
2.0151725e+00 1.7772721e+00 -2.0180134e-01 
1.9968758e+00 1.7594528e+00 -1.5881734e-01 
1.9943566e+00 1.7568660e+00 -1.7173077e-01 
1.9979310e+00 1.7602729e+00 -1.8684575e-01 
2.0015945e+00 1.7638761e+00 -1.9135615e-01 
2.0020099e+00 1.7643508e+00 -1.8445392e-01 
1.9861919e+00 1.7488546e+00 -1.5729629e-01 
1.9882560e+00 1.7510163e+00 -1.4336149e-01 
1.9867303e+00 1.7491539e+00 -1.8752955e-01 
1.9860101e+00 1.7487168e+00 -1.5563338e-01 
1.9886047e+00 1.7511687e+00 -1.6886531e-01 
1.9876387e+00 1.7500573e+00 -1.8508285e-01 
1.9763919e+00 1.7390437e+00 -1.6940857e-01 
1.9780730e+00 1.7408013e+00 -1.5745917e-01 
1.9776417e+00 1.7404444e+00 -1.4582838e-01 
1.9754544e+00 1.7380081e+00 -1.8284556e-01 
1.9752312e+00 1.7380787e+00 -1.4530754e-01 
1.9888420e+00 1.7511282e+00 -1.9864346e-01 
1.9736803e+00 1.7362045e+00 -1.8404941e-01 
1.9682835e+00 1.7310985e+00 -1.5500714e-01 
1.9685520e+00 1.7314578e+00 -1.4138678e-01 
1.9632943e+00 1.7260623e+00 -1.6548993e-01 
1.9626700e+00 1.7252800e+00 -1.8470465e-01 
1.9638031e+00 1.7267661e+00 -1.4019538e-01 
1.9753318e+00 1.7378097e+00 -1.8824817e-01 
1.9757370e+00 1.7382748e+00 -1.8135989e-01 
1.9608755e+00 1.7237462e+00 -1.5521638e-01 
1.9597659e+00 1.7225995e+00 -1.6231316e-01 
1.9585429e+00 1.7213551e+00 -1.6709711e-01 
1.9597952e+00 1.7227604e+00 -1.4358306e-01 
1.9616092e+00 1.7245300e+00 -1.5212187e-01 
1.9623765e+00 1.7251662e+00 -1.6584274e-01 
1.9614351e+00 1.7240739e+00 -1.8194583e-01 
1.9515734e+00 1.7143327e+00 -1.8003659e-01 
1.9505023e+00 1.7134906e+00 -1.5275383e-01 
1.9507731e+00 1.7138520e+00 -1.3915506e-01 
1.9510046e+00 1.7140862e+00 -1.4208212e-01 
1.9498131e+00 1.7125413e+00 -1.8133134e-01 
1.9626136e+00 1.7251071e+00 -1.9549334e-01 
1.9408302e+00 1.7038151e+00 -1.6480957e-01 
1.9420904e+00 1.7052262e+00 -1.4136647e-01 
1.9399176e+00 1.7029451e+00 -1.5852030e-01 
1.9389951e+00 1.7018269e+00 -1.8192464e-01 
1.9397249e+00 1.7029239e+00 -1.3707305e-01 
1.9491557e+00 1.7118572e+00 -1.8514672e-01 
1.9495525e+00 1.7123147e+00 -1.7827553e-01 
1.9328514e+00 1.6960151e+00 -1.5054131e-01 