# vtk DataFile Version 4.0
vtk output
ASCII
DATASET UNSTRUCTURED_GRID
POINTS 6166 float
-4.3633327e-01 9.6409470e-01 4.4200001e+01 
-4.3633261e-01 9.6409082e-01 4.4079685e+01 
-3.2145375e-01 9.1276109e-01 4.4200001e+01 
-3.8566181e-01 8.4097892e-01 4.4200001e+01 
-3.3069235e-01 9.1895354e-01 4.4019413e+01 
-3.8473952e-01 8.3919770e-01 4.4024357e+01 
-4.3633196e-01 9.6408689e-01 4.3958702e+01 
-2.1293370e-01 8.4677851e-01 4.4200001e+01 
-2.9042658e-01 7.3813015e-01 4.4200001e+01 
-2.1019450e-01 8.4669626e-01 4.4077393e+01 
-2.8909999e-01 7.3605996e-01 4.4073399e+01 
-3.2963324e-01 9.1929907e-01 4.3898094e+01 
-3.8679782e-01 8.4179753e-01 4.3889645e+01 
-2.0740938e-01 8.4661204e-01 4.3952713e+01 
-4.3633130e-01 9.6408290e-01 4.3837040e+01 
-1.1677200e-01 7.7521002e-01 4.4200001e+01 
-2.8775173e-01 7.3395580e-01 4.3944717e+01 
-1.9365783e-01 6.6203654e-01 4.4200001e+01 
-1.1309985e-01 7.7540898e-01 4.4012005e+01 
-1.9181472e-01 6.5888047e-01 4.4006447e+01 
-3.2856464e-01 9.1964108e-01 4.3776085e+01 
-3.8823184e-01 8.4352189e-01 4.3765770e+01 
-2.0457739e-01 8.4652513e-01 4.3825886e+01 
-2.8638119e-01 7.3181647e-01 4.3813885e+01 
-4.3633065e-01 9.6407896e-01 4.3714680e+01 
-1.0911675e-01 7.7426714e-01 4.3886200e+01 
-2.1001574e-02 6.8269837e-01 4.4200001e+01 
-1.8902887e-01 6.5566909e-01 4.3876659e+01 
-7.8887597e-02 5.9015810e-01 4.4200001e+01 
-3.2748649e-01 9.1997939e-01 4.3653378e+01 
-3.9889076e-01 8.5876143e-01 4.3651733e+01 
-2.0169757e-01 8.4643483e-01 4.3696846e+01 
-7.2496021e-03 6.7325598e-01 4.3947758e+01 
-1.0504345e-01 7.7307969e-01 4.3758209e+01 
-2.8498772e-01 7.2964084e-01 4.3680840e+01 
-6.3224643e-02 5.7783771e-01 4.3940754e+01 
3.5808440e-02 6.2679136e-01 4.4056572e+01 
-1.8616955e-01 6.5238589e-01 4.3744686e+01 
-4.3632996e-01 9.6407503e-01 4.3591618e+01 
-9.8678423e-03 5.4892725e-01 4.4055367e+01 
-1.8652271e-02 6.8798620e-01 4.3834026e+01 
-7.9845116e-02 5.8636194e-01 4.3823372e+01 
8.7777540e-02 5.7885915e-01 4.4200001e+01 
5.3622175e-02 5.1732427e-01 4.4200001e+01 
-3.2639861e-01 9.2031354e-01 4.3529953e+01 
-3.9894739e-01 8.5844576e-01 4.3528313e+01 
-1.9876897e-01 8.4634024e-01 4.3565521e+01 
-1.0087753e-01 7.7184403e-01 4.3627972e+01 
-2.8357074e-01 7.2742778e-01 4.3545506e+01 
-1.8323407e-01 6.4902818e-01 4.3610458e+01 
-4.3632931e-01 9.6407109e-01 4.3467831e+01 
3.1033519e-03 6.6751039e-01 4.3691772e+01 
-5.3600248e-02 5.6906003e-01 4.3676846e+01 
1.2436585e-01 5.5082864e-01 4.3886215e+01 
1.7079005e-01 5.1095647e-01 4.4054855e+01 
1.4951277e-01 4.6697062e-01 4.4053665e+01 
1.0028158e-01 4.8915190e-01 4.3877911e+01 
-4.0513036e-01 8.6722642e-01 4.3405304e+01 
-3.2530096e-01 9.2064321e-01 4.3405800e+01 
-9.6616447e-02 7.7055699e-01 4.3495411e+01 
-8.4563000e-03 6.8258613e-01 4.3574005e+01 
-1.9579062e-01 8.4624058e-01 4.3431831e+01 
2.1753120e-01 4.7335833e-01 4.4200001e+01 
2.0360756e-01 4.4289169e-01 4.4200001e+01 
-1.8021962e-01 6.4559317e-01 4.3473904e+01 
-7.0636064e-02 5.7773441e-01 4.3555408e+01 
-2.8212959e-01 7.2517604e-01 4.3407806e+01 
-4.3632865e-01 9.6406716e-01 4.3343307e+01 
1.3810426e-01 5.4143524e-01 4.3628246e+01 
-3.2419339e-01 9.2096806e-01 4.3280907e+01 
-3.9903235e-01 8.5775709e-01 4.3279266e+01 
-9.2257597e-02 7.6921552e-01 4.3360443e+01 
1.1508528e-01 4.7804743e-01 4.3612068e+01 
-1.9276154e-01 8.4613472e-01 4.3295704e+01 
1.4013666e-02 6.6131532e-01 4.3426643e+01 
-1.7712323e-01 6.4207786e-01 4.3334946e+01 
-2.8066361e-01 7.2288430e-01 4.3267666e+01 
-4.3382257e-02 5.5983055e-01 4.3403778e+01 
-4.3632799e-01 9.6406323e-01 4.3218033e+01 
3.7877345e-01 3.8273901e-01 4.4200001e+01 
3.9076596e-01 3.7443376e-01 4.3993755e+01 
-3.2307580e-01 9.2128778e-01 4.3155251e+01 
-3.9906058e-01 8.5738426e-01 4.3153610e+01 
-8.7798268e-02 7.6781619e-01 4.3222996e+01 
1.9689407e-02 6.5803534e-01 4.3290459e+01 
-6.0862999e-02 5.6866169e-01 4.3278019e+01 
-1.8968078e-01 8.4602165e-01 4.3157055e+01 
-1.7394182e-01 6.3847917e-01 4.3193501e+01 
-4.3632734e-01 9.6405929e-01 4.3091995e+01 
4.0275589e-01 3.6612594e-01 4.3787510e+01 
1.2304078e-01 5.5709994e-01 4.3330139e+01 
-2.7917209e-01 7.2055119e-01 4.3125000e+01 
2.5336364e-01 4.4907436e-01 4.3468094e+01 
2.3670304e-01 4.1684708e-01 4.3469433e+01 
1.3086085e-01 4.6634668e-01 4.3336948e+01 
-3.8351217e-01 8.3473074e-01 4.3036392e+01 
-3.2194808e-01 9.2160189e-01 4.3028820e+01 
2.5518833e-02 6.5462554e-01 4.3151749e+01 
-8.3235659e-02 7.6635528e-01 4.3082981e+01 
4.1474071e-01 3.5781288e-01 4.3581264e+01 
-1.8654740e-01 8.4590012e-01 4.3015797e+01 
-3.2522827e-02 5.5011308e-01 4.3120937e+01 
-1.7067213e-01 6.3479382e-01 4.3049488e+01 
-4.3632668e-01 9.6405542e-01 4.2965172e+01 
-2.7765438e-01 7.1817529e-01 4.2979721e+01 
2.6620242e-01 4.4011977e-01 4.3261948e+01 
1.3584816e-02 6.7044950e-01 4.3025066e+01 
-3.2081014e-01 9.2191011e-01 4.2901604e+01 
-3.8160574e-01 8.3169121e-01 4.2902863e+01 
-7.8566879e-02 7.6482886e-01 4.2940315e+01 
-5.0480481e-02 5.5910730e-01 4.2990566e+01 
4.2671782e-01 3.4949207e-01 4.3375019e+01 
1.6821145e-01 5.2049083e-01 4.3083881e+01 
-1.8336046e-01 8.4576881e-01 4.2871841e+01 
-4.3632606e-01 9.6405160e-01 4.2837555e+01 
-1.6731077e-01 6.3101834e-01 4.2902817e+01 
1.4768846e-01 4.5400122e-01 4.3051926e+01 
-2.7610970e-01 7.1575516e-01 4.2831745e+01 
-3.1966189e-01 9.2221189e-01 4.2773579e+01 
-3.8560396e-01 8.3684862e-01 4.2767078e+01 
3.7660085e-02 6.4738947e-01 4.2866421e+01 
-7.3788933e-02 7.6323271e-01 4.2794899e+01 
4.3868470e-01 3.4116083e-01 4.3168777e+01 
-4.3632543e-01 9.6404779e-01 4.2709122e+01 
-2.0968946e-02 5.3986710e-01 4.2827656e+01 
-1.8011902e-01 8.4562629e-01 4.2725094e+01 
-1.6385415e-01 6.2714905e-01 4.2753403e+01 
-2.7453732e-01 7.1328926e-01 4.2680973e+01 
-3.1850323e-01 9.2250693e-01 4.2644733e+01 
-3.9907700e-01 8.5570478e-01 4.2643101e+01 
2.5504474e-02 6.6361672e-01 4.2734810e+01 
1.8471870e-01 5.0880390e-01 4.2796177e+01 
-6.8898737e-02 7.6156229e-01 4.2646645e+01 
-3.9438177e-02 5.4903054e-01 4.2692345e+01 
-4.3632481e-01 9.6404403e-01 4.2579861e+01 
4.5063871e-01 3.3281663e-01 4.2962532e+01 
1.6565691e-01 4.4095638e-01 4.2756321e+01 
-1.7682223e-01 8.4547096e-01 4.2575459e+01 
-1.6029853e-01 6.2318206e-01 4.2601143e+01 
-4.0415615e-01 8.6278629e-01 4.2516582e+01 
-3.1733403e-01 9.2279470e-01 4.2515053e+01 
-2.7293649e-01 7.1077597e-01 4.2527313e+01 
5.0482783e-02 6.3954860e-01 4.2569923e+01 
-4.3632418e-01 9.6404034e-01 4.2449757e+01 
-6.3893095e-02 7.5981271e-01 4.2495445e+01 
-8.6617703e-03 5.2904755e-01 4.2523201e+01 
-1.7346917e-01 8.4530097e-01 4.2422829e+01 
-1.5663996e-01 6.1911333e-01 4.2445942e+01 
3.0435190e-01 4.1341871e-01 4.2643494e+01 
4.6257737e-01 3.2445681e-01 4.2756287e+01 
-3.1615424e-01 9.2307472e-01 4.2384518e+01 
-3.9902648e-01 8.5475212e-01 4.2382885e+01 
-2.7130640e-01 7.0821363e-01 4.2370659e+01 
3.8079392e-02 6.5619886e-01 4.2433029e+01 
2.0230262e-01 4.9620378e-01 4.2497147e+01 
-4.3632355e-01 9.6403670e-01 4.2318787e+01 
-5.8768708e-02 7.5797862e-01 4.2341198e+01 
-2.7680276e-02 5.3838593e-01 4.2382599e+01 
1.8486446e-01 4.2715022e-01 4.2449394e+01 
-3.8436696e-01 8.3356136e-01 4.2264896e+01 
8.9545198e-02 5.3233254e-01 4.2382050e+01 
-3.3225983e-01 9.3122375e-01 4.2255634e+01 
-1.7005907e-01 8.4511453e-01 4.2267101e+01 
-1.5287429e-01 6.1493850e-01 4.2287693e+01 
4.7449806e-01 3.1607881e-01 4.2550037e+01 
-2.6964626e-01 7.0560038e-01 4.2210907e+01 
-4.3632296e-01 9.6403313e-01 4.2186939e+01 
6.4036883e-02 6.3103610e-01 4.2261456e+01 
-5.3522192e-02 7.5605446e-01 4.2183796e+01 
-3.7873057e-01 8.2541841e-01 4.2124020e+01 
-3.1376252e-01 9.2360973e-01 4.2120819e+01 
4.4639236e-03 5.1760370e-01 4.2206776e+01 
-1.6659111e-01 8.4490943e-01 4.2108162e+01 
-1.4899719e-01 6.1065292e-01 4.2126286e+01 
-4.3632239e-01 9.6402961e-01 4.2054195e+01 
4.8639825e-01 3.0768004e-01 4.2343792e+01 
-2.6795524e-01 7.0293444e-01 4.2047943e+01 
2.4746621e-01 4.6040925e-01 4.2191032e+01 
7.1105182e-02 6.2650448e-01 4.2102463e+01 
-3.1255043e-01 9.2386365e-01 4.1987617e+01 
-4.8150036e-02 7.5403398e-01 4.2023121e+01 
-1.5144684e-02 5.2712250e-01 4.2060505e+01 
-3.7995064e-01 8.2661813e-01 4.1980038e+01 
2.0541981e-01 4.1251117e-01 4.2130333e+01 
-1.6306458e-01 8.4468329e-01 4.1945896e+01 
-4.3632182e-01 9.6402621e-01 4.1920536e+01 
-1.4500406e-01 6.0625184e-01 4.1961609e+01 
1.3375351e-01 5.6370503e-01 4.1969833e+01 
-2.6623246e-01 7.0021385e-01 4.1881653e+01 
-3.1132740e-01 9.2410773e-01 4.1853493e+01 
-3.9880505e-01 8.5261923e-01 4.1851868e+01 
4.9827534e-01 2.9925787e-01 4.2137547e+01 
3.4194937e-01 3.8685825e-01 4.2025021e+01 
-4.2648647e-02 7.5191063e-01 4.1859051e+01 
-2.5401810e-01 7.9503769e-01 4.1808533e+01 
1.8480448e-02 5.0547802e-01 4.1877510e+01 
-4.3632126e-01 9.6402287e-01 4.1785946e+01 
-1.5947884e-01 8.4443361e-01 4.1780174e+01 
-1.4089009e-01 6.0172999e-01 4.1793541e+01 
-3.1009343e-01 9.2434150e-01 4.1718426e+01 
-4.0306881e-01 8.5845691e-01 4.1716179e+01 
8.5861288e-02 6.1683756e-01 4.1774368e+01 
-2.6447710e-01 6.9743657e-01 4.1711910e+01 
3.0427080e-01 4.1638452e-01 4.1839512e+01 
2.6751360e-01 3.7833902e-01 4.1830902e+01 
5.1012677e-01 2.9080975e-01 4.1931297e+01 
-3.7014309e-02 7.4967718e-01 4.1691463e+01 
-4.3632072e-01 9.6401966e-01 4.1650398e+01 
2.5847588e-02 4.9913955e-01 4.1707767e+01 
-1.5583332e-01 8.4415752e-01 4.1610870e+01 
-3.8322043e-01 8.2981020e-01 4.1595791e+01 
-3.0884841e-01 9.2456430e-01 4.1582397e+01 
-1.3665022e-01 5.9708190e-01 4.1621960e+01 
9.3565010e-02 6.1167872e-01 4.1605015e+01 
-2.6268822e-01 6.9460052e-01 4.1538593e+01 
-4.3632022e-01 9.6401656e-01 4.1513885e+01 
-3.1243213e-02 7.4732590e-01 4.1520226e+01 
2.7603787e-01 3.7115356e-01 4.1624012e+01 
2.8505871e-01 4.3281260e-01 4.1611507e+01 
5.2195001e-01 2.8233302e-01 4.1725052e+01 
3.3468332e-02 4.9260557e-01 4.1534447e+01 
-3.9853087e-01 8.5081697e-01 4.1443768e+01 
-3.2560509e-01 9.3245691e-01 4.1443577e+01 
-1.5212752e-01 8.4385180e-01 4.1437847e+01 
-1.3227913e-01 5.9230179e-01 4.1446728e+01 
-4.3631971e-01 9.6401358e-01 4.1376381e+01 
[...]
POINT_DATA 6166
FIELD FieldData 5
DISPLACEMENT 3 6166  float
1.5710657e+00 1.4350739e+00 -8.5730977e-02 
1.5617106e+00 1.4256629e+00 -8.4996738e-02 
1.5708334e+00 1.4347901e+00 -9.0637818e-02 
1.5711901e+00 1.4352573e+00 -8.0030218e-02 
1.5568062e+00 1.4206815e+00 -8.9303114e-02 
1.5575343e+00 1.4215207e+00 -7.8890949e-02 
1.5523036e+00 1.4161998e+00 -8.4258363e-02 
1.5706536e+00 1.4345758e+00 -9.3903840e-02 
1.5711337e+00 1.4352072e+00 -7.9378232e-02 
1.5611124e+00 1.4249755e+00 -9.3362264e-02 
1.5612905e+00 1.4253058e+00 -7.8546926e-02 
1.5473690e+00 1.4111868e+00 -8.8672236e-02 
1.5470604e+00 1.4109837e+00 -7.8112811e-02 
1.5514095e+00 1.4152125e+00 -9.2811361e-02 
1.5428438e+00 1.4066836e+00 -8.3515793e-02 
1.5705237e+00 1.4344262e+00 -9.5772445e-02 
1.5512855e+00 1.4152417e+00 -7.7702038e-02 
1.5710123e+00 1.4350692e+00 -8.0939755e-02 
1.5558950e+00 1.4197067e+00 -9.4926454e-02 
1.5559642e+00 1.4199324e+00 -7.9655200e-02 
1.5378785e+00 1.4016386e+00 -8.8037498e-02 
1.5374292e+00 1.4012947e+00 -7.7380836e-02 
1.5415400e+00 1.4052819e+00 -9.2250712e-02 
1.5411139e+00 1.4050099e+00 -7.6843224e-02 
1.5333303e+00 1.3971133e+00 -8.2769006e-02 
1.5461034e+00 1.4098544e+00 -9.4378911e-02 
1.5704424e+00 1.4343423e+00 -9.5971160e-02 
1.5458713e+00 1.4097795e+00 -7.8828648e-02 
1.5708266e+00 1.4348489e+00 -8.4229708e-02 
1.5283339e+00 1.3920360e+00 -8.7398805e-02 
1.5285608e+00 1.3923697e+00 -7.7050246e-02 
1.5314986e+00 1.3951784e+00 -9.1679871e-02 
1.5508091e+00 1.4145881e+00 -9.4761580e-02 
1.5361425e+00 1.3998318e+00 -9.3821421e-02 
1.5307701e+00 1.3946053e+00 -7.5970173e-02 
1.5506494e+00 1.4145486e+00 -8.2900785e-02 
1.5592443e+00 1.4230767e+00 -9.5133401e-02 
1.5356088e+00 1.3994563e+00 -7.7989198e-02 
1.5237622e+00 1.3874884e+00 -8.2017988e-02 
1.5594643e+00 1.4233969e+00 -8.5482016e-02 
1.5419676e+00 1.4056910e+00 -9.4334885e-02 
1.5415535e+00 1.4054048e+00 -8.1560947e-02 
1.5703471e+00 1.4342431e+00 -9.6293770e-02 
1.5705894e+00 1.4345634e+00 -8.8823020e-02 
1.5187342e+00 1.3823785e+00 -8.6756229e-02 
1.5189660e+00 1.3827182e+00 -7.6268770e-02 
1.5212797e+00 1.3848968e+00 -9.1098413e-02 
1.5260068e+00 1.3896334e+00 -9.3253456e-02 
1.5202490e+00 1.3840222e+00 -7.5082310e-02 
1.5251714e+00 1.3889573e+00 -7.7136204e-02 
1.5141387e+00 1.3778080e+00 -8.1262350e-02 
1.5308874e+00 1.3945438e+00 -9.3554229e-02 
1.5301200e+00 1.3938965e+00 -8.1352033e-02 
1.5459011e+00 1.4096440e+00 -9.5027693e-02 
1.5589629e+00 1.4227791e+00 -9.6542060e-02 
1.5590341e+00 1.4229031e+00 -9.1438361e-02 
1.5454675e+00 1.4092766e+00 -8.8277787e-02 
1.5094026e+00 1.3730963e+00 -7.5726084e-02 
1.5090786e+00 1.3726647e+00 -8.6109199e-02 
1.5156909e+00 1.3792539e+00 -9.2674538e-02 
1.5217323e+00 1.3853313e+00 -9.3117572e-02 
1.5108782e+00 1.3744313e+00 -9.0505853e-02 
1.5701920e+00 1.4340686e+00 -9.8115668e-02 
1.5703028e+00 1.4342157e+00 -9.4648816e-02 
1.5145538e+00 1.3782772e+00 -7.6269880e-02 
1.5207109e+00 1.3844382e+00 -7.9967588e-02 
1.5095452e+00 1.3732558e+00 -7.4179851e-02 
1.5044590e+00 1.3680713e+00 -8.0502741e-02 
1.5258228e+00 1.3894424e+00 -9.3785793e-02 
1.4993666e+00 1.3628950e+00 -8.5458696e-02 
1.4996084e+00 1.3632474e+00 -7.4691303e-02 
1.5051893e+00 1.3686879e+00 -9.2084095e-02 
1.5247772e+00 1.3884603e+00 -8.6937375e-02 
1.5002880e+00 1.3637769e+00 -8.9901537e-02 
1.5102561e+00 1.3737862e+00 -9.2298970e-02 
1.5037504e+00 1.3674105e+00 -7.5389720e-02 
1.4986528e+00 1.3623000e+00 -7.3261403e-02 
1.5088804e+00 1.3725305e+00 -7.9759821e-02 
1.4947222e+00 1.3582777e+00 -7.9738408e-02 
1.5699078e+00 1.4337271e+00 -1.0354882e-01 
1.5538534e+00 1.4175733e+00 -1.0257202e-01 
1.4895970e+00 1.3530668e+00 -8.4803760e-02 
1.4898442e+00 1.3534262e+00 -7.3895134e-02 
1.4944962e+00 1.3579299e+00 -9.1481581e-02 
1.4996607e+00 1.3631265e+00 -9.1651738e-02 
1.4991387e+00 1.3627386e+00 -7.8328282e-02 
1.4895033e+00 1.3529274e+00 -8.9284770e-02 
1.4927558e+00 1.3563520e+00 -7.4495405e-02 
1.4849273e+00 1.3484261e+00 -7.8969665e-02 
1.5377991e+00 1.4014200e+00 -1.0159471e-01 
1.5026580e+00 1.3661398e+00 -9.2022188e-02 
1.4875664e+00 1.3511499e+00 -7.2327517e-02 
1.5132301e+00 1.3767574e+00 -9.4532944e-02 
1.5134572e+00 1.3770249e+00 -9.0724692e-02 
1.5033671e+00 1.3669204e+00 -8.5569687e-02 
1.4807396e+00 1.3442751e+00 -7.2617710e-02 
1.4797690e+00 1.3431815e+00 -8.4143795e-02 
1.4888709e+00 1.3522722e+00 -9.0991318e-02 
1.4836054e+00 1.3469739e+00 -9.0866677e-02 
1.5217459e+00 1.3852683e+00 -1.0061640e-01 
1.4785184e+00 1.3418771e+00 -8.8656411e-02 
1.4868861e+00 1.3504077e+00 -7.8122653e-02 
1.4815631e+00 1.3450956e+00 -7.3585697e-02 
1.4750739e+00 1.3385164e+00 -7.8196175e-02 
1.4762794e+00 1.3397986e+00 -7.1377389e-02 
1.4971873e+00 1.3606166e+00 -9.3570486e-02 
1.4790283e+00 1.3423698e+00 -9.0529636e-02 
1.4698815e+00 1.3332375e+00 -8.3479941e-02 
1.4703667e+00 1.3338442e+00 -7.1715944e-02 
1.4725106e+00 1.3358135e+00 -9.0238534e-02 
1.4767911e+00 1.3402618e+00 -7.6640286e-02 
1.5056959e+00 1.3691194e+00 -9.9635541e-02 
1.4834652e+00 1.3468288e+00 -9.1164231e-02 
1.4673263e+00 1.3306193e+00 -8.8014372e-02 
1.4651601e+00 1.3285470e+00 -7.7417709e-02 
1.4701672e+00 1.3336351e+00 -7.2662115e-02 
1.4811932e+00 1.3446146e+00 -8.4176637e-02 
1.4647851e+00 1.3282409e+00 -7.0410840e-02 
1.4599336e+00 1.3232334e+00 -8.2811207e-02 
1.4598211e+00 1.3232384e+00 -7.0984729e-02 
1.4666829e+00 1.3299543e+00 -8.9627296e-02 
1.4612056e+00 1.3244426e+00 -8.9596607e-02 
1.4896466e+00 1.3529726e+00 -9.8654099e-02 
1.4551860e+00 1.3185184e+00 -7.6635383e-02 
1.4640894e+00 1.3274810e+00 -7.6437488e-02 
1.4559207e+00 1.3191485e+00 -8.7358192e-02 
1.4585601e+00 1.3219646e+00 -7.1722068e-02 
1.4530786e+00 1.3164704e+00 -6.9428176e-02 
1.4499259e+00 1.3131698e+00 -8.2137421e-02 
1.4501942e+00 1.3135545e+00 -7.0661269e-02 
1.4564632e+00 1.3196738e+00 -8.9149393e-02 
1.4610914e+00 1.3243246e+00 -8.9778759e-02 
1.4496839e+00 1.3128552e+00 -8.8939480e-02 
1.4536180e+00 1.3169593e+00 -7.4901037e-02 
1.4451523e+00 1.3084302e+00 -7.5849459e-02 
1.4736043e+00 1.3368361e+00 -9.7671688e-02 
1.4582059e+00 1.3214934e+00 -8.2755208e-02 
1.4442958e+00 1.3074590e+00 -8.6687535e-02 
1.4467381e+00 1.3100783e+00 -7.0768490e-02 
1.4403733e+00 1.3036803e+00 -7.0054263e-02 
1.4398575e+00 1.3030481e+00 -8.1460714e-02 
1.4411533e+00 1.3044809e+00 -6.8427175e-02 
1.4436427e+00 1.3067834e+00 -8.8200554e-02 
1.4350567e+00 1.2982814e+00 -7.5057872e-02 
1.4379404e+00 1.3010470e+00 -8.8267334e-02 
1.4404418e+00 1.3037045e+00 -7.4704990e-02 
1.4324442e+00 1.2955428e+00 -8.6001851e-02 
1.4346950e+00 1.2979712e+00 -6.9796830e-02 
1.4490913e+00 1.3122400e+00 -9.0674959e-02 
1.4575698e+00 1.3207105e+00 -9.6687816e-02 
1.4297265e+00 1.2928618e+00 -8.0779135e-02 
1.4300054e+00 1.2932591e+00 -6.9016933e-02 
1.4290017e+00 1.2922667e+00 -6.7408077e-02 
1.4330230e+00 1.2961049e+00 -8.7706178e-02 
1.4378560e+00 1.3009601e+00 -8.8338122e-02 
1.4248986e+00 1.2880708e+00 -7.4262939e-02 
1.4259645e+00 1.2890068e+00 -8.7580658e-02 
1.4295714e+00 1.2927850e+00 -7.3110886e-02 
1.4343574e+00 1.2975138e+00 -8.1306353e-02 
1.4208599e+00 1.2840717e+00 -6.7788847e-02 
1.4291885e+00 1.2923096e+00 -8.1718750e-02 
1.4197640e+00 1.2828549e+00 -7.9381488e-02 
1.4203584e+00 1.2833930e+00 -8.5300602e-02 
1.4224188e+00 1.2856333e+00 -6.8810962e-02 
1.4415424e+00 1.3045915e+00 -9.5699660e-02 
1.4166162e+00 1.2798202e+00 -6.6372804e-02 
1.4146793e+00 1.2778008e+00 -7.3463418e-02 
1.4196939e+00 1.2827071e+00 -8.6708404e-02 
1.4137516e+00 1.2767295e+00 -8.6876601e-02 
1.4099426e+00 1.2731041e+00 -6.6741079e-02 
1.4092790e+00 1.2723094e+00 -7.9399318e-02 
1.4158859e+00 1.2790221e+00 -7.2920986e-02 
1.4080322e+00 1.2710035e+00 -8.4584698e-02 
1.4099050e+00 1.2730590e+00 -6.7806102e-02 
1.4043963e+00 1.2674676e+00 -7.2658278e-02 
1.4255239e+00 1.2884878e+00 -9.4710350e-02 
1.4039903e+00 1.2671341e+00 -6.5318331e-02 
1.4140596e+00 1.2770358e+00 -8.7185599e-02 
1.4073629e+00 1.2703117e+00 -8.5936442e-02 
1.3989588e+00 1.2619411e+00 -7.8703105e-02 
1.4012929e+00 1.2642081e+00 -8.6154073e-02 
1.4045899e+00 1.2676798e+00 -7.1266495e-02 
1.3987910e+00 1.2619004e+00 -6.5873444e-02 
1.4095883e+00 1.2726148e+00 -7.9827935e-02 
1.3954570e+00 1.2583662e+00 -8.3850138e-02 
1.3940467e+00 1.2570711e+00 -7.1847633e-02 
1.3971480e+00 1.2602434e+00 -6.6787764e-02 
1.3970408e+00 1.2599428e+00 -8.5086778e-02 
1.3911175e+00 1.2542043e+00 -6.4246789e-02 
1.3885741e+00 1.2515093e+00 -7.8000173e-02 
1.3888713e+00 1.2519300e+00 -6.5671213e-02 
1.4095229e+00 1.2724067e+00 -9.3719602e-02 
1.4010787e+00 1.2639754e+00 -8.7757282e-02 
1.3885837e+00 1.2514377e+00 -8.5412957e-02 
1.3852133e+00 1.2481897e+00 -7.2123602e-02 
1.3903674e+00 1.2533835e+00 -7.1086131e-02 
1.3836352e+00 1.2466161e+00 -7.1033485e-02 
1.3826284e+00 1.2454799e+00 -8.3093286e-02 
1.3841425e+00 1.2471808e+00 -6.5756120e-02 
1.3781261e+00 1.2410171e+00 -7.7293158e-02 
1.3783801e+00 1.2413956e+00 -6.4985640e-02 
1.3819455e+00 1.2447748e+00 -8.4327087e-02 
1.3779913e+00 1.2410252e+00 -6.3158803e-02 
1.3867640e+00 1.2496012e+00 -8.6019859e-02 
1.3862911e+00 1.2491878e+00 -8.0168389e-02 
1.3935287e+00 1.2563312e+00 -9.2722118e-02 
1.3756183e+00 1.2384140e+00 -8.4651798e-02 
1.3731599e+00 1.2360997e+00 -7.0218734e-02 
1.3772329e+00 1.2401940e+00 -7.0153356e-02 
1.3695396e+00 1.2323349e+00 -8.2319573e-02 
1.3690838e+00 1.2320704e+00 -6.3579984e-02 
1.3676187e+00 1.2304679e+00 -7.6579161e-02 
1.3708777e+00 1.2338659e+00 -6.4702079e-02 
1.3688513e+00 1.2316244e+00 -8.3497114e-02 
1.3646083e+00 1.2275913e+00 -6.2050704e-02 
1.3626270e+00 1.2255245e+00 -6.9399655e-02 
1.3623846e+00 1.2251277e+00 -8.3870754e-02 
1.3702893e+00 1.2331194e+00 -7.9026289e-02 
1.3691626e+00 1.2319286e+00 -8.4432527e-02 
1.3775572e+00 1.2402873e+00 -9.1722503e-02 
1.3638371e+00 1.2267472e+00 -6.9205217e-02 
1.3573589e+00 1.2202945e+00 -6.3123196e-02 
1.3569456e+00 1.2197596e+00 -7.5061321e-02 
1.3561789e+00 1.2189251e+00 -8.1529267e-02 
1.3573515e+00 1.2202921e+00 -6.3635789e-02 
1.3520250e+00 1.2148857e+00 -6.8572760e-02 
1.3574176e+00 1.2201496e+00 -8.2591377e-02 
1.3509561e+00 1.2138935e+00 -6.0926165e-02 
1.3488793e+00 1.2115732e+00 -8.3070010e-02 
1.3464094e+00 1.2091826e+00 -7.5143658e-02 
1.3467207e+00 1.2096251e+00 -6.2264021e-02 
1.3501743e+00 1.2130380e+00 -6.8245605e-02 
1.3550569e+00 1.2178259e+00 -7.8454748e-02 
1.3616108e+00 1.2242755e+00 -9.0722017e-02 
1.3425438e+00 1.2052425e+00 -8.0718346e-02 
1.3524290e+00 1.2151291e+00 -8.3797500e-02 
1.3413566e+00 1.2041873e+00 -6.7737959e-02 
1.3435532e+00 1.2064513e+00 -6.2552363e-02 
1.3433425e+00 1.2060286e+00 -8.1657045e-02 
1.3357034e+00 1.1984469e+00 -7.4415818e-02 
1.3360188e+00 1.1988986e+00 -6.1400764e-02 
1.3370287e+00 1.1999270e+00 -5.9781015e-02 
1.3350916e+00 1.1977414e+00 -8.2248993e-02 
1.3362358e+00 1.1990592e+00 -6.7273051e-02 
1.3306224e+00 1.1934284e+00 -6.6903979e-02 
1.3398234e+00 1.2025511e+00 -7.6893628e-02 
1.3456920e+00 1.2082989e+00 -8.9717075e-02 
1.3286207e+00 1.1912791e+00 -7.9886839e-02 
1.3294734e+00 1.1923363e+00 -6.1451294e-02 
1.3369738e+00 1.1996242e+00 -8.2949921e-02 
1.3249327e+00 1.1876482e+00 -7.3682502e-02 
1.3252540e+00 1.1881080e+00 -6.0534649e-02 
1.3286866e+00 1.1913314e+00 -8.0714978e-02 
1.3228151e+00 1.1856830e+00 -5.8616292e-02 
1.3198240e+00 1.1826042e+00 -6.6068977e-02 
1.3210106e+00 1.1836246e+00 -8.1405915e-02 
1.3220108e+00 1.1848005e+00 -6.6287242e-02 
1.3140994e+00 1.1767918e+00 -7.2946109e-02 
1.3144227e+00 1.1772519e+00 -5.9661143e-02 
1.3143995e+00 1.1770270e+00 -7.9036117e-02 
1.3298032e+00 1.1923604e+00 -8.8708244e-02 
1.3151029e+00 1.1779389e+00 -6.0332775e-02 
1.3218417e+00 1.1845292e+00 -7.5147651e-02 
1.3216434e+00 1.1842505e+00 -8.2132936e-02 
1.3089576e+00 1.1717184e+00 -6.5223441e-02 
1.3137927e+00 1.1764036e+00 -7.9752952e-02 
1.3083067e+00 1.1711527e+00 -5.7434879e-02 
1.3066301e+00 1.1692156e+00 -8.0537409e-02 
1.3096541e+00 1.1724095e+00 -6.6449672e-02 
1.3031915e+00 1.1658677e+00 -7.2204441e-02 
1.3035238e+00 1.1663420e+00 -5.8794193e-02 
1.2998748e+00 1.1624787e+00 -7.8159198e-02 
1.3139420e+00 1.1764566e+00 -8.7708682e-02 
1.2980248e+00 1.1607766e+00 -6.4386278e-02 
1.3004376e+00 1.1632537e+00 -5.9196867e-02 
1.3060950e+00 1.1686698e+00 -8.1104152e-02 
1.3045582e+00 1.1671976e+00 -7.5189807e-02 
1.2988526e+00 1.1614372e+00 -7.8791618e-02 
1.2922236e+00 1.1548896e+00 -7.1464792e-02 
1.2925543e+00 1.1553663e+00 -5.7920016e-02 
1.2935019e+00 1.1563324e+00 -5.6228437e-02 
1.2919424e+00 1.1545079e+00 -7.9644218e-02 
1.2948269e+00 1.1575549e+00 -6.6115119e-02 
1.2870216e+00 1.1497651e+00 -6.3540593e-02 
1.2850448e+00 1.1476305e+00 -7.7259153e-02 
1.2850003e+00 1.1477263e+00 -6.4729087e-02 
1.2981154e+00 1.1606033e+00 -8.6703569e-02 
1.2854674e+00 1.1482728e+00 -5.8043644e-02 
1.2907220e+00 1.1532755e+00 -7.9856962e-02 
1.2811862e+00 1.1438453e+00 -7.0707649e-02 
1.2815169e+00 1.1443204e+00 -5.7037946e-02 
1.2837845e+00 1.1463531e+00 -7.7842161e-02 
1.2888318e+00 1.1514436e+00 -7.4676812e-02 
1.2783846e+00 1.1412097e+00 -5.5007860e-02 
1.2759538e+00 1.1386917e+00 -6.2683210e-02 
1.2769358e+00 1.1394905e+00 -7.8728482e-02 
1.2794728e+00 1.1421928e+00 -6.5161236e-02 
1.2700764e+00 1.1327326e+00 -6.9955133e-02 
1.2704195e+00 1.1332225e+00 -5.6157801e-02 
1.2698779e+00 1.1324637e+00 -7.6331198e-02 
1.2823147e+00 1.1447822e+00 -8.5697092e-02 
1.2701809e+00 1.1329863e+00 -5.6874204e-02 
1.2752709e+00 1.1378125e+00 -7.8825548e-02 
1.2648149e+00 1.1275575e+00 -6.1832003e-02 
1.2685145e+00 1.1310805e+00 -7.6865122e-02 
1.2734118e+00 1.1360074e+00 -7.4373551e-02 
1.2622156e+00 1.1249093e+00 -6.6661887e-02 
1.2629460e+00 1.1257799e+00 -5.3758908e-02 
1.2615980e+00 1.1241548e+00 -7.7783719e-02 
1.2589009e+00 1.1215684e+00 -6.9198854e-02 
1.2636130e+00 1.1263328e+00 -6.4486243e-02 
1.2578965e+00 1.1207160e+00 -5.4605827e-02 
1.2543846e+00 1.1169777e+00 -7.5383671e-02 
1.2536025e+00 1.1163591e+00 -6.0972162e-02 
1.2665617e+00 1.1290267e+00 -8.4685981e-02 
1.2545981e+00 1.1174088e+00 -5.6503277e-02 
1.2593038e+00 1.1218554e+00 -7.7592947e-02 
1.2535375e+00 1.1161081e+00 -7.5999059e-02 
1.2584826e+00 1.1210684e+00 -7.4848086e-02 
1.2476906e+00 1.1103727e+00 -6.8388678e-02 
1.2480363e+00 1.1108650e+00 -5.4401111e-02 
1.2471784e+00 1.1100301e+00 -5.2493781e-02 
1.2459954e+00 1.1085690e+00 -7.6813050e-02 
1.2424017e+00 1.1051732e+00 -6.0118742e-02 
1.2447115e+00 1.1074487e+00 -6.3386522e-02 
1.2386752e+00 1.1012927e+00 -7.4418217e-02 
1.2508647e+00 1.1133423e+00 -8.3667882e-02 
1.2365265e+00 1.0992222e+00 -6.7549087e-02 
1.2368780e+00 1.0997212e+00 -5.3556822e-02 
1.2388469e+00 1.1016903e+00 -5.4369215e-02 
1.2428064e+00 1.1054096e+00 -7.3847830e-02 
1.2401844e+00 1.1027586e+00 -7.6428048e-02 
1.2351452e+00 1.0977478e+00 -7.4791424e-02 
1.2312763e+00 1.0940651e+00 -5.9276629e-02 
1.2314832e+00 1.0943624e+00 -5.1230222e-02 
1.2304235e+00 1.0930232e+00 -7.5858429e-02 
1.2301599e+00 1.0929583e+00 -5.9551861e-02 
1.2254454e+00 1.0881643e+00 -6.6709690e-02 
1.2251773e+00 1.0880483e+00 -5.2036434e-02 
1.2232248e+00 1.0858691e+00 -7.3464334e-02 
1.2352035e+00 1.0977063e+00 -8.2651652e-02 
1.2232693e+00 1.0861511e+00 -5.3044435e-02 
1.2202282e+00 1.0830437e+00 -5.8434755e-02 
1.2220011e+00 1.0846263e+00 -7.4042924e-02 
1.2259588e+00 1.0886468e+00 -6.8783864e-02 
1.2270099e+00 1.0895994e+00 -7.6912664e-02 
1.2208148e+00 1.0834438e+00 -7.3934995e-02 
1.2160209e+00 1.0789402e+00 -5.0002221e-02 
1.2144326e+00 1.0771819e+00 -6.5872371e-02 
1.2147869e+00 1.0776815e+00 -5.1893938e-02 
1.2151085e+00 1.0777361e+00 -7.4907161e-02 
1.2147167e+00 1.0775589e+00 -5.8082562e-02 
1.2092595e+00 1.0721104e+00 -5.7606261e-02 
1.2080299e+00 1.0707105e+00 -7.2511658e-02 
1.2195860e+00 1.0821263e+00 -8.1653960e-02 
1.2079319e+00 1.0708611e+00 -5.1752239e-02 
1.2051059e+00 1.0680434e+00 -5.0344989e-02 
1.2035123e+00 1.0662977e+00 -6.5037318e-02 
1.2068248e+00 1.0694838e+00 -7.3115140e-02 
1.2114156e+00 1.0740411e+00 -7.5915389e-02 
1.2115581e+00 1.0742306e+00 -7.1850136e-02 
1.2007968e+00 1.0637653e+00 -4.8798665e-02 
1.2059230e+00 1.0686945e+00 -6.4462855e-02 
1.2000438e+00 1.0627176e+00 -7.3964112e-02 
1.1983788e+00 1.0612622e+00 -5.6781285e-02 
1.2030689e+00 1.0657406e+00 -7.2773710e-02 
1.1995144e+00 1.0624114e+00 -5.6650128e-02 
1.1926645e+00 1.0554841e+00 -6.4213194e-02 
1.1930801e+00 1.0558152e+00 -7.1576513e-02 
1.2039888e+00 1.0665655e+00 -8.0626369e-02 
1.1928302e+00 1.0558188e+00 -5.0490007e-02 
1.1910417e+00 1.0540322e+00 -4.9119532e-02 
1.1918997e+00 1.0546128e+00 -7.2200812e-02 
1.1875606e+00 1.0504941e+00 -5.5968635e-02 
1.1958486e+00 1.0585105e+00 -7.4915178e-02 
1.1959857e+00 1.0586960e+00 -7.0853099e-02 
1.1858033e+00 1.0488396e+00 -4.7619078e-02 
1.1852267e+00 1.0479616e+00 -7.3031276e-02 
1.1818898e+00 1.0447633e+00 -6.3385315e-02 
1.1822453e+00 1.0452617e+00 -4.9465749e-02 
1.1878705e+00 1.0507270e+00 -6.2095873e-02 
1.1875546e+00 1.0502834e+00 -7.1741536e-02 
1.1845467e+00 1.0475137e+00 -5.5254634e-02 
1.1798389e+00 1.0428082e+00 -5.5376761e-02 
1.1783823e+00 1.0411854e+00 -7.0647620e-02 
1.1768295e+00 1.0398130e+00 -5.5165578e-02 
1.1884435e+00 1.0510666e+00 -7.9601757e-02 
1.1767057e+00 1.0397793e+00 -4.7154821e-02 
1.1779641e+00 1.0410231e+00 -4.9260601e-02 
1.1772244e+00 1.0400026e+00 -7.1298681e-02 
1.1803453e+00 1.0430735e+00 -7.3911622e-02 
1.1804754e+00 1.0432553e+00 -6.9858827e-02 
1.1712039e+00 1.0341389e+00 -6.2564477e-02 
1.1715457e+00 1.0346224e+00 -4.8678301e-02 
1.1708708e+00 1.0338459e+00 -5.8370650e-02 
1.1710355e+00 1.0341512e+00 -4.6475153e-02 
1.1709460e+00 1.0339000e+00 -6.0338203e-02 
1.1706665e+00 1.0334700e+00 -7.2101235e-02 
1.1724030e+00 1.0353445e+00 -6.1134830e-02 
1.1721019e+00 1.0349094e+00 -7.0709266e-02 
1.1698184e+00 1.0328662e+00 -5.3905919e-02 
1.1661829e+00 1.0292293e+00 -5.4360826e-02 
1.1660535e+00 1.0291909e+00 -4.6375915e-02 
1.1639295e+00 1.0268123e+00 -6.9712378e-02 
1.1620171e+00 1.0251470e+00 -4.8495486e-02 
1.1633173e+00 1.0264677e+00 -4.8054229e-02 
1.1729614e+00 1.0356591e+00 -7.8575872e-02 
1.1617943e+00 1.0248666e+00 -5.4111309e-02 
1.1605986e+00 1.0235937e+00 -6.1746359e-02 
1.1628034e+00 1.0256648e+00 -7.0420459e-02 
1.1649039e+00 1.0277225e+00 -7.2909102e-02 
1.1650281e+00 1.0279003e+00 -6.8865702e-02 
1.1556211e+00 1.0187362e+00 -5.3579319e-02 
1.1565059e+00 1.0197185e+00 -4.5352887e-02 
1.1563289e+00 1.0192249e+00 -7.1179874e-02 
1.1553127e+00 1.0184598e+00 -5.2560914e-02 
1.1569959e+00 1.0200273e+00 -6.0192253e-02 
1.1567075e+00 1.0196092e+00 -6.9691695e-02 
1.1500809e+00 1.0131480e+00 -6.0944233e-02 
1.1508095e+00 1.0139556e+00 -5.3900123e-02 
1.1504172e+00 1.0136369e+00 -4.7139786e-02 
1.1497110e+00 1.0126843e+00 -6.8803728e-02 
1.1489013e+00 1.0121475e+00 -4.6879400e-02 
1.1575462e+00 1.0203360e+00 -7.7546358e-02 
1.1486112e+00 1.0115632e+00 -6.9536090e-02 
1.1451370e+00 1.0083300e+00 -5.2793998e-02 
1.1450078e+00 1.0082914e+00 -4.4816017e-02 
1.1422981e+00 1.0054320e+00 -5.9036341e-02 
1.1422464e+00 1.0052358e+00 -7.0270814e-02 
1.1421908e+00 1.0055069e+00 -4.4258006e-02 
1.1495296e+00 1.0124462e+00 -7.1904570e-02 
1.1496485e+00 1.0126190e+00 -6.7869872e-02 
1.1407475e+00 1.0039662e+00 -5.3121824e-02 
1.1402426e+00 1.0034193e+00 -5.7306249e-02 
1.1396310e+00 1.0027809e+00 -6.0143266e-02 
1.1399710e+00 1.0032746e+00 -4.6377536e-02 
1.1410230e+00 1.0042814e+00 -5.1262531e-02 
1.1416444e+00 1.0047905e+00 -5.9234697e-02 
1.1413676e+00 1.0043812e+00 -6.8666242e-02 
1.1357330e+00 9.9881107e-01 -6.7896470e-02 
1.1347281e+00 9.9801135e-01 -5.2023739e-02 
1.1346021e+00 9.9797571e-01 -4.4058785e-02 
1.1347187e+00 9.9808711e-01 -4.5739859e-02 
1.1346449e+00 9.9770039e-01 -6.8682559e-02 
1.1421912e+00 1.0050856e+00 -7.6514460e-02 
1.1292614e+00 9.9250144e-01 -5.9350055e-02 
1.1296083e+00 9.9300057e-01 -4.5625620e-02 
1.1285839e+00 9.9186528e-01 -5.5694234e-02 
1.1283902e+00 9.9149394e-01 -6.9372356e-02 
1.1280955e+00 9.9153483e-01 -4.3172982e-02 
1.1342068e+00 9.9723727e-01 -7.0897713e-02 
1.1343216e+00 9.9740642e-01 -6.6873431e-02 
1.1243966e+00 9.8777133e-01 -5.1271774e-02 