# vtk DataFile Version 4.0
vtk output
ASCII
DATASET UNSTRUCTURED_GRID
POINTS 6166 float
-4.3633327e-01 9.6409470e-01 4.4200001e+01 
-4.3633261e-01 9.6409082e-01 4.4079685e+01 
-3.2145375e-01 9.1276109e-01 4.4200001e+01 
-3.8566181e-01 8.4097892e-01 4.4200001e+01 
-3.3069235e-01 9.1895354e-01 4.4019413e+01 
-3.8473952e-01 8.3919770e-01 4.4024357e+01 
-4.3633196e-01 9.6408689e-01 4.3958702e+01 
-2.1293370e-01 8.4677851e-01 4.4200001e+01 
-2.9042658e-01 7.3813015e-01 4.4200001e+01 
-2.1019450e-01 8.4669626e-01 4.4077393e+01 
-2.8909999e-01 7.3605996e-01 4.4073399e+01 
-3.2963324e-01 9.1929907e-01 4.3898094e+01 
-3.8679782e-01 8.4179753e-01 4.3889645e+01 
-2.0740938e-01 8.4661204e-01 4.3952713e+01 
-4.3633130e-01 9.6408290e-01 4.3837040e+01 
-1.1677200e-01 7.7521002e-01 4.4200001e+01 
-2.8775173e-01 7.3395580e-01 4.3944717e+01 
-1.9365783e-01 6.6203654e-01 4.4200001e+01 
-1.1309985e-01 7.7540898e-01 4.4012005e+01 
-1.9181472e-01 6.5888047e-01 4.4006447e+01 
-3.2856464e-01 9.1964108e-01 4.3776085e+01 
-3.8823184e-01 8.4352189e-01 4.3765770e+01 
-2.0457739e-01 8.4652513e-01 4.3825886e+01 
-2.8638119e-01 7.3181647e-01 4.3813885e+01 
-4.3633065e-01 9.6407896e-01 4.3714680e+01 
-1.0911675e-01 7.7426714e-01 4.3886200e+01 
-2.1001574e-02 6.8269837e-01 4.4200001e+01 
-1.8902887e-01 6.5566909e-01 4.3876659e+01 
-7.8887597e-02 5.9015810e-01 4.4200001e+01 
-3.2748649e-01 9.1997939e-01 4.3653378e+01 
-3.9889076e-01 8.5876143e-01 4.3651733e+01 
-2.0169757e-01 8.4643483e-01 4.3696846e+01 
-7.2496021e-03 6.7325598e-01 4.3947758e+01 
-1.0504345e-01 7.7307969e-01 4.3758209e+01 
-2.8498772e-01 7.2964084e-01 4.3680840e+01 
-6.3224643e-02 5.7783771e-01 4.3940754e+01 
3.5808440e-02 6.2679136e-01 4.4056572e+01 
-1.8616955e-01 6.5238589e-01 4.3744686e+01 
-4.3632996e-01 9.6407503e-01 4.3591618e+01 
-9.8678423e-03 5.4892725e-01 4.4055367e+01 
-1.8652271e-02 6.8798620e-01 4.3834026e+01 
-7.9845116e-02 5.8636194e-01 4.3823372e+01 
8.7777540e-02 5.7885915e-01 4.4200001e+01 
5.3622175e-02 5.1732427e-01 4.4200001e+01 
-3.2639861e-01 9.2031354e-01 4.3529953e+01 
-3.9894739e-01 8.5844576e-01 4.3528313e+01 
-1.9876897e-01 8.4634024e-01 4.3565521e+01 
-1.0087753e-01 7.7184403e-01 4.3627972e+01 
-2.8357074e-01 7.2742778e-01 4.3545506e+01 
-1.8323407e-01 6.4902818e-01 4.3610458e+01 
-4.3632931e-01 9.6407109e-01 4.3467831e+01 
3.1033519e-03 6.6751039e-01 4.3691772e+01 
-5.3600248e-02 5.6906003e-01 4.3676846e+01 
1.2436585e-01 5.5082864e-01 4.3886215e+01 
1.7079005e-01 5.1095647e-01 4.4054855e+01 
1.4951277e-01 4.6697062e-01 4.4053665e+01 
1.0028158e-01 4.8915190e-01 4.3877911e+01 
-4.0513036e-01 8.6722642e-01 4.3405304e+01 
-3.2530096e-01 9.2064321e-01 4.3405800e+01 
-9.6616447e-02 7.7055699e-01 4.3495411e+01 
-8.4563000e-03 6.8258613e-01 4.3574005e+01 
-1.9579062e-01 8.4624058e-01 4.3431831e+01 
2.1753120e-01 4.7335833e-01 4.4200001e+01 
2.0360756e-01 4.4289169e-01 4.4200001e+01 
-1.8021962e-01 6.4559317e-01 4.3473904e+01 
-7.0636064e-02 5.7773441e-01 4.3555408e+01 
-2.8212959e-01 7.2517604e-01 4.3407806e+01 
-4.3632865e-01 9.6406716e-01 4.3343307e+01 
1.3810426e-01 5.4143524e-01 4.3628246e+01 
-3.2419339e-01 9.2096806e-01 4.3280907e+01 
-3.9903235e-01 8.5775709e-01 4.3279266e+01 
-9.2257597e-02 7.6921552e-01 4.3360443e+01 
1.1508528e-01 4.7804743e-01 4.3612068e+01 
-1.9276154e-01 8.4613472e-01 4.3295704e+01 
1.4013666e-02 6.6131532e-01 4.3426643e+01 
-1.7712323e-01 6.4207786e-01 4.3334946e+01 
-2.8066361e-01 7.2288430e-01 4.3267666e+01 
-4.3382257e-02 5.5983055e-01 4.3403778e+01 
-4.3632799e-01 9.6406323e-01 4.3218033e+01 
3.7877345e-01 3.8273901e-01 4.4200001e+01 
3.9076596e-01 3.7443376e-01 4.3993755e+01 
-3.2307580e-01 9.2128778e-01 4.3155251e+01 
-3.9906058e-01 8.5738426e-01 4.3153610e+01 
-8.7798268e-02 7.6781619e-01 4.3222996e+01 
1.9689407e-02 6.5803534e-01 4.3290459e+01 
-6.0862999e-02 5.6866169e-01 4.3278019e+01 
-1.8968078e-01 8.4602165e-01 4.3157055e+01 
-1.7394182e-01 6.3847917e-01 4.3193501e+01 
-4.3632734e-01 9.6405929e-01 4.3091995e+01 
4.0275589e-01 3.6612594e-01 4.3787510e+01 
1.2304078e-01 5.5709994e-01 4.3330139e+01 
-2.7917209e-01 7.2055119e-01 4.3125000e+01 
2.5336364e-01 4.4907436e-01 4.3468094e+01 
2.3670304e-01 4.1684708e-01 4.3469433e+01 
1.3086085e-01 4.6634668e-01 4.3336948e+01 
-3.8351217e-01 8.3473074e-01 4.3036392e+01 
-3.2194808e-01 9.2160189e-01 4.3028820e+01 
2.5518833e-02 6.5462554e-01 4.3151749e+01 
-8.3235659e-02 7.6635528e-01 4.3082981e+01 
4.1474071e-01 3.5781288e-01 4.3581264e+01 
-1.8654740e-01 8.4590012e-01 4.3015797e+01 
-3.2522827e-02 5.5011308e-01 4.3120937e+01 
-1.7067213e-01 6.3479382e-01 4.3049488e+01 
-4.3632668e-01 9.6405542e-01 4.2965172e+01 
-2.7765438e-01 7.1817529e-01 4.2979721e+01 
2.6620242e-01 4.4011977e-01 4.3261948e+01 
1.3584816e-02 6.7044950e-01 4.3025066e+01 
-3.2081014e-01 9.2191011e-01 4.2901604e+01 
-3.8160574e-01 8.3169121e-01 4.2902863e+01 
-7.8566879e-02 7.6482886e-01 4.2940315e+01 
-5.0480481e-02 5.5910730e-01 4.2990566e+01 
4.2671782e-01 3.4949207e-01 4.3375019e+01 
1.6821145e-01 5.2049083e-01 4.3083881e+01 
-1.8336046e-01 8.4576881e-01 4.2871841e+01 
-4.3632606e-01 9.6405160e-01 4.2837555e+01 
-1.6731077e-01 6.3101834e-01 4.2902817e+01 
1.4768846e-01 4.5400122e-01 4.3051926e+01 
-2.7610970e-01 7.1575516e-01 4.2831745e+01 
-3.1966189e-01 9.2221189e-01 4.2773579e+01 
-3.8560396e-01 8.3684862e-01 4.2767078e+01 
3.7660085e-02 6.4738947e-01 4.2866421e+01 
-7.3788933e-02 7.6323271e-01 4.2794899e+01 
4.3868470e-01 3.4116083e-01 4.3168777e+01 
-4.3632543e-01 9.6404779e-01 4.2709122e+01 
-2.0968946e-02 5.3986710e-01 4.2827656e+01 
-1.8011902e-01 8.4562629e-01 4.2725094e+01 
-1.6385415e-01 6.2714905e-01 4.2753403e+01 
-2.7453732e-01 7.1328926e-01 4.2680973e+01 
-3.1850323e-01 9.2250693e-01 4.2644733e+01 
-3.9907700e-01 8.5570478e-01 4.2643101e+01 
2.5504474e-02 6.6361672e-01 4.2734810e+01 
1.8471870e-01 5.0880390e-01 4.2796177e+01 
-6.8898737e-02 7.6156229e-01 4.2646645e+01 
-3.9438177e-02 5.4903054e-01 4.2692345e+01 
-4.3632481e-01 9.6404403e-01 4.2579861e+01 
4.5063871e-01 3.3281663e-01 4.2962532e+01 
1.6565691e-01 4.4095638e-01 4.2756321e+01 
-1.7682223e-01 8.4547096e-01 4.2575459e+01 
-1.6029853e-01 6.2318206e-01 4.2601143e+01 
-4.0415615e-01 8.6278629e-01 4.2516582e+01 
-3.1733403e-01 9.2279470e-01 4.2515053e+01 
-2.7293649e-01 7.1077597e-01 4.2527313e+01 
5.0482783e-02 6.3954860e-01 4.2569923e+01 
-4.3632418e-01 9.6404034e-01 4.2449757e+01 
-6.3893095e-02 7.5981271e-01 4.2495445e+01 
-8.6617703e-03 5.2904755e-01 4.2523201e+01 
-1.7346917e-01 8.4530097e-01 4.2422829e+01 
-1.5663996e-01 6.1911333e-01 4.2445942e+01 
3.0435190e-01 4.1341871e-01 4.2643494e+01 
4.6257737e-01 3.2445681e-01 4.2756287e+01 
-3.1615424e-01 9.2307472e-01 4.2384518e+01 
-3.9902648e-01 8.5475212e-01 4.2382885e+01 
-2.7130640e-01 7.0821363e-01 4.2370659e+01 
3.8079392e-02 6.5619886e-01 4.2433029e+01 
2.0230262e-01 4.9620378e-01 4.2497147e+01 
-4.3632355e-01 9.6403670e-01 4.2318787e+01 
-5.8768708e-02 7.5797862e-01 4.2341198e+01 
-2.7680276e-02 5.3838593e-01 4.2382599e+01 
1.8486446e-01 4.2715022e-01 4.2449394e+01 
-3.8436696e-01 8.3356136e-01 4.2264896e+01 
8.9545198e-02 5.3233254e-01 4.2382050e+01 
-3.3225983e-01 9.3122375e-01 4.2255634e+01 
-1.7005907e-01 8.4511453e-01 4.2267101e+01 
-1.5287429e-01 6.1493850e-01 4.2287693e+01 
4.7449806e-01 3.1607881e-01 4.2550037e+01 
-2.6964626e-01 7.0560038e-01 4.2210907e+01 
-4.3632296e-01 9.6403313e-01 4.2186939e+01 
6.4036883e-02 6.3103610e-01 4.2261456e+01 
-5.3522192e-02 7.5605446e-01 4.2183796e+01 
-3.7873057e-01 8.2541841e-01 4.2124020e+01 
-3.1376252e-01 9.2360973e-01 4.2120819e+01 
4.4639236e-03 5.1760370e-01 4.2206776e+01 
-1.6659111e-01 8.4490943e-01 4.2108162e+01 
-1.4899719e-01 6.1065292e-01 4.2126286e+01 
-4.3632239e-01 9.6402961e-01 4.2054195e+01 
4.8639825e-01 3.0768004e-01 4.2343792e+01 
-2.6795524e-01 7.0293444e-01 4.2047943e+01 
2.4746621e-01 4.6040925e-01 4.2191032e+01 
7.1105182e-02 6.2650448e-01 4.2102463e+01 
-3.1255043e-01 9.2386365e-01 4.1987617e+01 
-4.8150036e-02 7.5403398e-01 4.2023121e+01 
-1.5144684e-02 5.2712250e-01 4.2060505e+01 
-3.7995064e-01 8.2661813e-01 4.1980038e+01 
2.0541981e-01 4.1251117e-01 4.2130333e+01 
-1.6306458e-01 8.4468329e-01 4.1945896e+01 
-4.3632182e-01 9.6402621e-01 4.1920536e+01 
-1.4500406e-01 6.0625184e-01 4.1961609e+01 
1.3375351e-01 5.6370503e-01 4.1969833e+01 
-2.6623246e-01 7.0021385e-01 4.1881653e+01 
-3.1132740e-01 9.2410773e-01 4.1853493e+01 
-3.9880505e-01 8.5261923e-01 4.1851868e+01 
4.9827534e-01 2.9925787e-01 4.2137547e+01 
3.4194937e-01 3.8685825e-01 4.2025021e+01 
-4.2648647e-02 7.5191063e-01 4.1859051e+01 
-2.5401810e-01 7.9503769e-01 4.1808533e+01 
1.8480448e-02 5.0547802e-01 4.1877510e+01 
-4.3632126e-01 9.6402287e-01 4.1785946e+01 
-1.5947884e-01 8.4443361e-01 4.1780174e+01 
-1.4089009e-01 6.0172999e-01 4.1793541e+01 
-3.1009343e-01 9.2434150e-01 4.1718426e+01 
-4.0306881e-01 8.5845691e-01 4.1716179e+01 
8.5861288e-02 6.1683756e-01 4.1774368e+01 
-2.6447710e-01 6.9743657e-01 4.1711910e+01 
3.0427080e-01 4.1638452e-01 4.1839512e+01 
2.6751360e-01 3.7833902e-01 4.1830902e+01 
5.1012677e-01 2.9080975e-01 4.1931297e+01 
-3.7014309e-02 7.4967718e-01 4.1691463e+01 
-4.3632072e-01 9.6401966e-01 4.1650398e+01 
2.5847588e-02 4.9913955e-01 4.1707767e+01 
-1.5583332e-01 8.4415752e-01 4.1610870e+01 
-3.8322043e-01 8.2981020e-01 4.1595791e+01 
-3.0884841e-01 9.2456430e-01 4.1582397e+01 
-1.3665022e-01 5.9708190e-01 4.1621960e+01 
9.3565010e-02 6.1167872e-01 4.1605015e+01 
-2.6268822e-01 6.9460052e-01 4.1538593e+01 
-4.3632022e-01 9.6401656e-01 4.1513885e+01 
-3.1243213e-02 7.4732590e-01 4.1520226e+01 
2.7603787e-01 3.7115356e-01 4.1624012e+01 
2.8505871e-01 4.3281260e-01 4.1611507e+01 
5.2195001e-01 2.8233302e-01 4.1725052e+01 
3.3468332e-02 4.9260557e-01 4.1534447e+01 
-3.9853087e-01 8.5081697e-01 4.1443768e+01 
-3.2560509e-01 9.3245691e-01 4.1443577e+01 
-1.5212752e-01 8.4385180e-01 4.1437847e+01 
-1.3227913e-01 5.9230179e-01 4.1446728e+01 
-4.3631971e-01 9.6401358e-01 4.1376381e+01 
[...]
POINT_DATA 6166
FIELD FieldData 5
DISPLACEMENT 3 6166  float
2.1356719e+00 1.9484180e+00 -1.5711389e-01 
2.1230786e+00 1.9357562e+00 -1.5578084e-01 
2.1353145e+00 1.9480472e+00 -1.6373299e-01 
2.1360528e+00 1.9488140e+00 -1.4945799e-01 
2.1164303e+00 1.9290611e+00 -1.6141763e-01 
2.1176727e+00 1.9303343e+00 -1.4742151e-01 
2.1104152e+00 1.9230242e+00 -1.5444033e-01 
2.1350703e+00 1.9477943e+00 -1.6814467e-01 
2.1360795e+00 1.9488424e+00 -1.4859901e-01 
2.1222227e+00 1.9348763e+00 -1.6706461e-01 
2.1228318e+00 1.9355230e+00 -1.4711761e-01 
2.1037240e+00 1.9162855e+00 -1.6022088e-01 
2.1035700e+00 1.9161549e+00 -1.4598770e-01 
2.1091573e+00 1.9217395e+00 -1.6596605e-01 
2.0976810e+00 1.9102207e+00 -1.5309224e-01 
2.1349244e+00 1.9476433e+00 -1.7067507e-01 
2.1093664e+00 1.9219847e+00 -1.4561199e-01 
2.1359541e+00 1.9487131e+00 -1.5071660e-01 
2.1152258e+00 1.9278369e+00 -1.6899794e-01 
2.1157019e+00 1.9283510e+00 -1.4843345e-01 
2.0909460e+00 1.9034381e+00 -1.5901698e-01 
2.0906029e+00 1.9031174e+00 -1.4464724e-01 
2.0958674e+00 1.9083771e+00 -1.6484824e-01 
2.0956767e+00 1.9082208e+00 -1.4408150e-01 
2.0848744e+00 1.8973448e+00 -1.5173648e-01 
2.1020417e+00 1.9145807e+00 -1.6790088e-01 
2.1348927e+00 1.9476110e+00 -1.7096005e-01 
2.1021187e+00 1.9146941e+00 -1.4694956e-01 
2.1357074e+00 1.9484574e+00 -1.5516160e-01 
2.0780952e+00 1.8905174e+00 -1.5780579e-01 
2.0786445e+00 1.8910934e+00 -1.4387310e-01 
2.0823462e+00 1.8947819e+00 -1.6371040e-01 
2.1084652e+00 1.9210390e+00 -1.6861126e-01 
2.0886297e+00 1.9010953e+00 -1.6678423e-01 
2.0817554e+00 1.8942243e+00 -1.4252551e-01 
2.1085517e+00 1.9211537e+00 -1.5263255e-01 
2.1198668e+00 1.9325033e+00 -1.6943194e-01 
2.0883071e+00 1.9008080e+00 -1.4544208e-01 
2.0719943e+00 1.8843951e+00 -1.5037307e-01 
2.1204090e+00 1.9330710e+00 -1.5644260e-01 
2.0965452e+00 1.9090536e+00 -1.6770855e-01 
2.0963109e+00 1.9088480e+00 -1.5049052e-01 
2.1348500e+00 1.9475675e+00 -1.7141406e-01 
2.1353679e+00 1.9481056e+00 -1.6136242e-01 
2.0651703e+00 1.8775227e+00 -1.5658736e-01 
2.0657294e+00 1.8781086e+00 -1.4246769e-01 
2.0685861e+00 1.8809472e+00 -1.6255178e-01 
2.0749824e+00 1.8873734e+00 -1.6564706e-01 
2.0675955e+00 1.8799880e+00 -1.4094310e-01 
2.0742602e+00 1.8866854e+00 -1.4390996e-01 
2.0590396e+00 1.8713710e+00 -1.4900142e-01 
2.0816457e+00 1.8940731e+00 -1.6625409e-01 
2.0809224e+00 1.8933747e+00 -1.4979336e-01 
2.1019542e+00 1.9144911e+00 -1.6881661e-01 
2.1195641e+00 1.9321955e+00 -1.7134616e-01 
2.1197925e+00 1.9324372e+00 -1.6447625e-01 
2.1015482e+00 1.9140986e+00 -1.5971218e-01 
2.0528440e+00 1.8651538e+00 -1.4138354e-01 
2.0521703e+00 1.8644526e+00 -1.5536095e-01 
2.0610926e+00 1.8734080e+00 -1.6448858e-01 
2.0693033e+00 1.8816630e+00 -1.6532643e-01 
2.0545800e+00 1.8668652e+00 -1.6137153e-01 
2.1347005e+00 1.9474134e+00 -1.7388791e-01 
2.1349406e+00 1.9476627e+00 -1.6922373e-01 
2.0599706e+00 1.8723192e+00 -1.4235331e-01 
2.0682602e+00 1.8806459e+00 -1.4757973e-01 
2.0531893e+00 1.8655049e+00 -1.3933434e-01 
2.0460095e+00 1.8582711e+00 -1.4762242e-01 
2.0749276e+00 1.8873168e+00 -1.6640788e-01 
2.0390940e+00 1.8513072e+00 -1.5412784e-01 
2.0396726e+00 1.8519131e+00 -1.3963135e-01 
2.0469527e+00 1.8591917e+00 -1.6330782e-01 
2.0737000e+00 1.8860991e+00 -1.5714851e-01 
2.0403202e+00 1.8525288e+00 -1.6016860e-01 
2.0538716e+00 1.8661478e+00 -1.6380653e-01 
2.0454311e+00 1.8577020e+00 -1.4077127e-01 
2.0385296e+00 1.8507670e+00 -1.3769719e-01 
2.0523367e+00 1.8646356e+00 -1.4686975e-01 
2.0329022e+00 1.8450946e+00 -1.4623502e-01 
2.1342983e+00 1.9469963e+00 -1.8122336e-01 
2.1126883e+00 1.9252675e+00 -1.7931934e-01 
2.0259402e+00 1.8380830e+00 -1.5288670e-01 
2.0265293e+00 1.8387001e+00 -1.3820009e-01 
2.0325549e+00 1.8447169e+00 -1.6210385e-01 
2.0396080e+00 1.8518072e+00 -1.6254617e-01 
2.0392272e+00 1.8514578e+00 -1.4458050e-01 
2.0257981e+00 1.8379301e+00 -1.5894184e-01 
2.0306342e+00 1.8428268e+00 -1.3916323e-01 
2.0197170e+00 1.8318402e+00 -1.4483961e-01 
2.0910785e+00 1.9035392e+00 -1.7741464e-01 
2.0437291e+00 1.8559496e+00 -1.6317725e-01 
2.0236084e+00 1.8357677e+00 -1.3603221e-01 
2.0580254e+00 1.8703190e+00 -1.6697365e-01 
2.0584295e+00 1.8707345e+00 -1.6185361e-01 
2.0448828e+00 1.8571261e+00 -1.5452187e-01 
2.0143034e+00 1.8264116e+00 -1.3614888e-01 
2.0127079e+00 1.8247818e+00 -1.5163675e-01 
2.0250823e+00 1.8372049e+00 -1.6126105e-01 
2.0178909e+00 1.8299757e+00 -1.6087604e-01 
2.0694702e+00 1.8818132e+00 -1.7550872e-01 
2.0110064e+00 1.8230609e+00 -1.5769221e-01 
2.0227354e+00 1.8348782e+00 -1.4385819e-01 
2.0155706e+00 1.8276854e+00 -1.3752727e-01 
2.0064528e+00 1.8185073e+00 -1.4343575e-01 
2.0084176e+00 1.8204978e+00 -1.3433808e-01 
2.0364311e+00 1.8486075e+00 -1.6508971e-01 
2.0118132e+00 1.8238654e+00 -1.6027457e-01 
1.9993957e+00 1.8114018e+00 -1.5037945e-01 
2.0003440e+00 1.8123810e+00 -1.3455369e-01 
2.0029523e+00 1.8149596e+00 -1.5962306e-01 
2.0091503e+00 1.8212242e+00 -1.4148758e-01 
2.0478659e+00 1.8600899e+00 -1.7359942e-01 
2.0179121e+00 1.8299949e+00 -1.6132499e-01 
1.9959359e+00 1.8079128e+00 -1.5641670e-01 
1.9931074e+00 1.8050945e+00 -1.4202307e-01 
2.0002334e+00 1.8122693e+00 -1.3586529e-01 
2.0150368e+00 1.8271226e+00 -1.5183355e-01 
1.9929475e+00 1.8049501e+00 -1.3261436e-01 
1.9860021e+00 1.7979410e+00 -1.4911352e-01 
1.9861416e+00 1.7981063e+00 -1.3318051e-01 
1.9952130e+00 1.8071805e+00 -1.5861073e-01 
1.9877309e+00 1.7996603e+00 -1.5834394e-01 
2.0262625e+00 1.8383701e+00 -1.7168954e-01 
1.9796808e+00 1.7916018e+00 -1.4060313e-01 
1.9920534e+00 1.8040394e+00 -1.4075303e-01 
1.9805779e+00 1.7924778e+00 -1.5511450e-01 
1.9846119e+00 1.7965707e+00 -1.3417353e-01 
1.9771914e+00 1.7891161e+00 -1.3086127e-01 
1.9725279e+00 1.7844002e+00 -1.4783874e-01 
1.9731576e+00 1.7850578e+00 -1.3238807e-01 
1.9814352e+00 1.7933320e+00 -1.5758875e-01 
1.9877962e+00 1.7997236e+00 -1.5863991e-01 
1.9722176e+00 1.7840697e+00 -1.5703663e-01 
1.9779618e+00 1.7898794e+00 -1.3829595e-01 
1.9661738e+00 1.7780290e+00 -1.3917629e-01 
2.0046685e+00 1.8166636e+00 -1.6977905e-01 
1.9840955e+00 1.7960219e+00 -1.4907771e-01 
1.9649246e+00 1.7767485e+00 -1.5378501e-01 
1.9687010e+00 1.7805816e+00 -1.3245586e-01 
1.9599278e+00 1.7717654e+00 -1.3120882e-01 
1.9589719e+00 1.7707810e+00 -1.4655802e-01 
1.9611411e+00 1.7729874e+00 -1.2907574e-01 
1.9641963e+00 1.7760088e+00 -1.5584549e-01 
1.9525834e+00 1.7643745e+00 -1.3773978e-01 
1.9564055e+00 1.7681817e+00 -1.5570126e-01 
1.9602257e+00 1.7720567e+00 -1.3755375e-01 
1.9489659e+00 1.7607144e+00 -1.5242721e-01 
1.9524922e+00 1.7642955e+00 -1.3070609e-01 
1.9716909e+00 1.7835342e+00 -1.5942977e-01 
1.9830848e+00 1.7949717e+00 -1.6786727e-01 
1.9453315e+00 1.7570750e+00 -1.4526856e-01 
1.9459817e+00 1.7577528e+00 -1.2943272e-01 
1.9447858e+00 1.7565563e+00 -1.2725779e-01 
1.9498791e+00 1.7616240e+00 -1.5478700e-01 
1.9565200e+00 1.7682947e+00 -1.5584996e-01 
1.9389091e+00 1.7506368e+00 -1.3629663e-01 
1.9402807e+00 1.7519819e+00 -1.5433808e-01 
1.9455971e+00 1.7573617e+00 -1.3500479e-01 
1.9519938e+00 1.7637661e+00 -1.4625449e-01 
1.9336978e+00 1.7454135e+00 -1.2744699e-01 
1.9449288e+00 1.7566661e+00 -1.4659941e-01 
1.9319246e+00 1.7436086e+00 -1.4301825e-01 
1.9326921e+00 1.7443658e+00 -1.5104015e-01 
1.9359697e+00 1.7476988e+00 -1.2892884e-01 
1.9615104e+00 1.7732885e+00 -1.6595000e-01 
1.9281156e+00 1.7398125e+00 -1.2540977e-01 
1.9251519e+00 1.7368191e+00 -1.3484538e-01 
1.9319563e+00 1.7436188e+00 -1.5295993e-01 
1.9238367e+00 1.7354625e+00 -1.5294310e-01 
1.9190115e+00 1.7306654e+00 -1.2563719e-01 
1.9178010e+00 1.7294208e+00 -1.4266127e-01 
1.9271747e+00 1.7388552e+00 -1.3425294e-01 
1.9160939e+00 1.7276943e+00 -1.4962488e-01 
1.9191271e+00 1.7307838e+00 -1.2711762e-01 
1.9113090e+00 1.7229164e+00 -1.3338442e-01 
1.9399478e+00 1.7516254e+00 -1.6403225e-01 
1.9111215e+00 1.7227461e+00 -1.2352745e-01 
1.9245024e+00 1.7361301e+00 -1.5343393e-01 
1.9153563e+00 1.7269431e+00 -1.5146977e-01 
1.9039056e+00 1.7154695e+00 -1.4134596e-01 
1.9070618e+00 1.7186152e+00 -1.5151471e-01 
1.9119731e+00 1.7235910e+00 -1.3160753e-01 
1.9039977e+00 1.7155902e+00 -1.2406005e-01 
1.9186524e+00 1.7302730e+00 -1.4335896e-01 
1.8991609e+00 1.7106895e+00 -1.4817590e-01 
1.8973763e+00 1.7089285e+00 -1.3191387e-01 
1.9019569e+00 1.7135441e+00 -1.2527977e-01 
1.9015152e+00 1.7130463e+00 -1.4996089e-01 
1.8937948e+00 1.7053516e+00 -1.2161354e-01 
1.8899235e+00 1.7014328e+00 -1.4001967e-01 
1.8906103e+00 1.7021487e+00 -1.2342029e-01 
1.9184085e+00 1.7299926e+00 -1.6211408e-01 
1.9070611e+00 1.7186092e+00 -1.5374696e-01 
1.8899493e+00 1.7014325e+00 -1.5005267e-01 
1.8856124e+00 1.6971177e+00 -1.3200015e-01 
1.8928272e+00 1.7043667e+00 -1.3085000e-01 
1.8833604e+00 1.6948617e+00 -1.3043690e-01 
1.8818864e+00 1.6933497e+00 -1.4668833e-01 
1.8844516e+00 1.6959716e+00 -1.2341546e-01 
1.8758560e+00 1.6873147e+00 -1.3868596e-01 
1.8764789e+00 1.6879685e+00 -1.2211257e-01 
1.8811392e+00 1.6925881e+00 -1.4837530e-01 
1.8761265e+00 1.6876215e+00 -1.1966883e-01 
1.8877752e+00 1.6992464e+00 -1.5087581e-01 
1.8872774e+00 1.6987642e+00 -1.4297557e-01 
1.8968782e+00 1.7083673e+00 -1.6018713e-01 
1.8724920e+00 1.6839091e+00 -1.4855503e-01 
1.8692579e+00 1.6807121e+00 -1.2895708e-01 
1.8751475e+00 1.6866237e+00 -1.2911496e-01 
1.8642613e+00 1.6756612e+00 -1.4516924e-01 
1.8640002e+00 1.6754506e+00 -1.1988482e-01 
1.8617082e+00 1.6731200e+00 -1.3734132e-01 
1.8665974e+00 1.6780595e+00 -1.2151222e-01 
1.8635113e+00 1.6748962e+00 -1.4678095e-01 
1.8581121e+00 1.6695480e+00 -1.1768835e-01 
1.8550777e+00 1.6664828e+00 -1.2746991e-01 
1.8546730e+00 1.6660317e+00 -1.4702158e-01 
1.8657374e+00 1.6771476e+00 -1.4085445e-01 
1.8640674e+00 1.6754531e+00 -1.4809127e-01 
1.8753778e+00 1.6867836e+00 -1.5825936e-01 
1.8571157e+00 1.6685344e+00 -1.2735061e-01 
1.8481886e+00 1.6595842e+00 -1.1883860e-01 
1.8473449e+00 1.6587096e+00 -1.3490532e-01 
1.8462696e+00 1.6576163e+00 -1.4361867e-01 
1.8483903e+00 1.6597986e+00 -1.1958368e-01 
1.8408043e+00 1.6521680e+00 -1.2597014e-01 
1.8481481e+00 1.6594863e+00 -1.4515185e-01 
1.8397348e+00 1.6511194e+00 -1.1567669e-01 
1.8364881e+00 1.6477934e+00 -1.4545260e-01 
1.8331500e+00 1.6444777e+00 -1.3463622e-01 
1.8338671e+00 1.6452286e+00 -1.1729416e-01 
1.8387238e+00 1.6500915e+00 -1.2556185e-01 
1.8452283e+00 1.6565745e+00 -1.3953304e-01 
1.8539107e+00 1.6652426e+00 -1.5633227e-01 
1.8279082e+00 1.6392039e+00 -1.4203130e-01 
1.8415521e+00 1.6528687e+00 -1.4663394e-01 
1.8264414e+00 1.6377729e+00 -1.2445800e-01 
1.8298165e+00 1.6411781e+00 -1.1762302e-01 
1.8292147e+00 1.6405030e+00 -1.4338656e-01 
1.8187339e+00 1.6300312e+00 -1.3326725e-01 
1.8194594e+00 1.6307957e+00 -1.1574262e-01 
1.8209865e+00 1.6323282e+00 -1.1362821e-01 
1.8179226e+00 1.6291816e+00 -1.4384700e-01 
1.8199602e+00 1.6312857e+00 -1.2374661e-01 
1.8119894e+00 1.6232959e+00 -1.2294517e-01 
1.8247250e+00 1.6360228e+00 -1.3687582e-01 
1.8324804e+00 1.6437486e+00 -1.5440135e-01 
1.8091583e+00 1.6204132e+00 -1.4040671e-01 
1.8108630e+00 1.6221880e+00 -1.1562935e-01 
1.8207483e+00 1.6320134e+00 -1.4493424e-01 
1.8042308e+00 1.6154997e+00 -1.3188918e-01 
1.8049666e+00 1.6162764e+00 -1.1418554e-01 
1.8094854e+00 1.6207314e+00 -1.4158785e-01 
1.8018521e+00 1.6131634e+00 -1.1154395e-01 
1.7974503e+00 1.6087307e+00 -1.2142911e-01 
1.7989616e+00 1.6101860e+00 -1.4220212e-01 
1.8008103e+00 1.6121025e+00 -1.2190416e-01 
1.7896428e+00 1.6008899e+00 -1.3050546e-01 
1.7903841e+00 1.6016686e+00 -1.1261663e-01 
1.7900068e+00 1.6012336e+00 -1.3874654e-01 
1.8110900e+00 1.6223053e+00 -1.5246765e-01 
1.7915177e+00 1.6028177e+00 -1.1360268e-01 
1.8005216e+00 1.6117748e+00 -1.3387138e-01 
1.8001121e+00 1.6113346e+00 -1.4328128e-01 
1.7828199e+00 1.5940822e+00 -1.1989716e-01 
1.7894338e+00 1.6006472e+00 -1.3975422e-01 
1.7823201e+00 1.5936124e+00 -1.0942758e-01 
1.7795973e+00 1.5907967e+00 -1.4051348e-01 
1.7841703e+00 1.5954380e+00 -1.2168150e-01 
1.7749541e+00 1.5861892e+00 -1.2911253e-01 
1.7757099e+00 1.5869876e+00 -1.1105496e-01 
1.7704461e+00 1.5816547e+00 -1.3704149e-01 
1.7897354e+00 1.6009076e+00 -1.5054849e-01 
1.7680988e+00 1.5793581e+00 -1.1837482e-01 
1.7717746e+00 1.5830588e+00 -1.1154316e-01 
1.7791778e+00 1.5903701e+00 -1.4133480e-01 
1.7772427e+00 1.5884590e+00 -1.3330989e-01 
1.7693092e+00 1.5805006e+00 -1.3791911e-01 
1.7601838e+00 1.5714149e+00 -1.2772100e-01 
1.7609402e+00 1.5722181e+00 -1.0948154e-01 
1.7623883e+00 1.5736706e+00 -1.0726821e-01 
1.7598183e+00 1.5710047e+00 -1.3878188e-01 
1.7642041e+00 1.5754553e+00 -1.2070013e-01 
1.7532830e+00 1.5645397e+00 -1.1683910e-01 
1.7504734e+00 1.5616717e+00 -1.3529576e-01 
1.7506859e+00 1.5619351e+00 -1.1840586e-01 
1.7684270e+00 1.5795773e+00 -1.4862514e-01 
1.7516202e+00 1.5629014e+00 -1.0945069e-01 
1.7584742e+00 1.5696489e+00 -1.3909857e-01 
1.7453202e+00 1.5565516e+00 -1.2630428e-01 
1.7460790e+00 1.5573535e+00 -1.0789567e-01 
1.7490098e+00 1.5601938e+00 -1.3609652e-01 
1.7560652e+00 1.5672642e+00 -1.3205504e-01 
1.7420347e+00 1.5533210e+00 -1.0507970e-01 
1.7383800e+00 1.5496376e+00 -1.1528615e-01 
1.7396097e+00 1.5507956e+00 -1.3700983e-01 
1.7435313e+00 1.5547860e+00 -1.1886427e-01 
1.7303581e+00 1.5415957e+00 -1.2489174e-01 
1.7311360e+00 1.5424185e+00 -1.0631129e-01 
1.7300466e+00 1.5412594e+00 -1.3350181e-01 
1.7471530e+00 1.5582900e+00 -1.4670192e-01 
1.7310388e+00 1.5423321e+00 -1.0732640e-01 
1.7376696e+00 1.5488417e+00 -1.3715427e-01 
1.7233800e+00 1.5346533e+00 -1.1373974e-01 
1.7284439e+00 1.5396380e+00 -1.3423243e-01 
1.7352974e+00 1.5464963e+00 -1.3109587e-01 
1.7199230e+00 1.5311871e+00 -1.2019431e-01 
1.7212478e+00 1.5325574e+00 -1.0284311e-01 
1.7189543e+00 1.5301574e+00 -1.3518845e-01 
1.7153072e+00 1.5265695e+00 -1.2347287e-01 
1.7221743e+00 1.5334468e+00 -1.1738844e-01 
1.7143052e+00 1.5256132e+00 -1.0377568e-01 
1.7091790e+00 1.5204165e+00 -1.3167153e-01 
1.7082813e+00 1.5195820e+00 -1.1217997e-01 
1.7259425e+00 1.5370899e+00 -1.4477657e-01 
1.7100590e+00 1.5213807e+00 -1.0627392e-01 
1.7161649e+00 1.5273626e+00 -1.3492158e-01 
1.7082577e+00 1.5194725e+00 -1.3252755e-01 
1.7151828e+00 1.5263972e+00 -1.3120778e-01 
1.7002097e+00 1.5115011e+00 -1.2198087e-01 
1.7009943e+00 1.5123289e+00 -1.0314272e-01 
1.7000164e+00 1.5113616e+00 -1.0057438e-01 
1.6979405e+00 1.5091807e+00 -1.3332459e-01 
1.6931971e+00 1.5045269e+00 -1.1063006e-01 
1.6967213e+00 1.5080354e+00 -1.1523324e-01 
1.6880198e+00 1.4993045e+00 -1.2981106e-01 
1.7048060e+00 1.5159843e+00 -1.4284603e-01 
1.6851740e+00 1.4964926e+00 -1.2045115e-01 
1.6859660e+00 1.4973290e+00 -1.0160646e-01 
1.6888477e+00 1.5002158e+00 -1.0283126e-01 
1.6940734e+00 1.5053256e+00 -1.2930241e-01 
1.6904206e+00 1.5016664e+00 -1.3267274e-01 
1.6834897e+00 1.4947637e+00 -1.3024610e-01 
1.6782138e+00 1.4895761e+00 -1.0909857e-01 
1.6788815e+00 1.4902759e+00 -9.8312013e-02 
1.6769633e+00 1.4882534e+00 -1.3148382e-01 
1.6771415e+00 1.4885198e+00 -1.0953667e-01 
1.6702498e+00 1.4816086e+00 -1.1892578e-01 
1.6702424e+00 1.4816457e+00 -9.9145412e-02 
1.6672081e+00 1.4785438e+00 -1.2797679e-01 
1.6837164e+00 1.4949424e+00 -1.4092082e-01 
1.6678706e+00 1.4793013e+00 -1.0049073e-01 
1.6633345e+00 1.4747415e+00 -1.0757124e-01 
1.6657735e+00 1.4770914e+00 -1.2876827e-01 
1.6714181e+00 1.4827555e+00 -1.2186557e-01 
1.6727021e+00 1.4839948e+00 -1.3287176e-01 
1.6642905e+00 1.4756138e+00 -1.2860812e-01 
1.6580585e+00 1.4695188e+00 -9.6107148e-02 
1.6554172e+00 1.4668257e+00 -1.1740644e-01 
1.6562111e+00 1.4676620e+00 -9.8578915e-02 
1.6563319e+00 1.4676739e+00 -1.2965839e-01 
1.6563466e+00 1.4677925e+00 -1.0700665e-01 
1.6485610e+00 1.4600250e+00 -1.0606572e-01 
1.6467400e+00 1.4581389e+00 -1.2615527e-01 
1.6626840e+00 1.4739745e+00 -1.3902366e-01 
1.6472151e+00 1.4587206e+00 -9.8204248e-02 
1.6432182e+00 1.4547254e+00 -9.6154466e-02 
1.6407083e+00 1.4521742e+00 -1.1589479e-01 
1.6453253e+00 1.4567029e+00 -1.2697959e-01 
1.6517010e+00 1.4630562e+00 -1.3097663e-01 
1.6519917e+00 1.4633652e+00 -1.2550353e-01 
1.6375549e+00 1.4490933e+00 -9.3945414e-02 
1.6444591e+00 1.4558941e+00 -1.1532202e-01 
1.6360366e+00 1.4474549e+00 -1.2785496e-01 
1.6339054e+00 1.4454221e+00 -1.0456911e-01 
1.6403929e+00 1.4517895e+00 -1.2641630e-01 
1.6358740e+00 1.4474028e+00 -1.0453682e-01 
1.6260962e+00 1.4376172e+00 -1.1440092e-01 
1.6266009e+00 1.4380871e+00 -1.2436771e-01 
1.6416788e+00 1.4530319e+00 -1.3708802e-01 
1.6268756e+00 1.4384719e+00 -9.5968366e-02 
1.6242833e+00 1.4358718e+00 -9.4007112e-02 
1.6252143e+00 1.4366791e+00 -1.2522025e-01 
1.6193333e+00 1.4309262e+00 -1.0309199e-01 
1.6307353e+00 1.4421537e+00 -1.2907925e-01 
1.6310182e+00 1.4424571e+00 -1.2360975e-01 
1.6173604e+00 1.4290018e+00 -9.1826081e-02 
1.6160736e+00 1.4275881e+00 -1.2607619e-01 
1.6115825e+00 1.4231848e+00 -1.1290582e-01 
1.6123749e+00 1.4240172e+00 -9.4154969e-02 
1.6201533e+00 1.4317060e+00 -1.1149105e-01 
1.6194987e+00 1.4309859e+00 -1.2448015e-01 
1.6157156e+00 1.4273477e+00 -1.0212693e-01 
1.6091415e+00 1.4207876e+00 -1.0207346e-01 
1.6067997e+00 1.4183916e+00 -1.2259978e-01 
1.6048776e+00 1.4165472e+00 -1.0163189e-01 
1.6207418e+00 1.4321710e+00 -1.3516000e-01 
1.6050386e+00 1.4167408e+00 -9.0865217e-02 
1.6068513e+00 1.4185534e+00 -9.3786806e-02 
1.6054387e+00 1.4170051e+00 -1.2348846e-01 
1.6098536e+00 1.4213750e+00 -1.2718272e-01 
1.6101267e+00 1.4216729e+00 -1.2172499e-01 
1.5971875e+00 1.4088811e+00 -1.1142471e-01 
1.5979602e+00 1.4096926e+00 -9.2716925e-02 
1.5969315e+00 1.4086331e+00 -1.0578334e-01 
1.5974678e+00 1.4092278e+00 -8.9764483e-02 
1.5970765e+00 1.4087703e+00 -1.0845964e-01 
1.5964555e+00 1.4080759e+00 -1.2431271e-01 
1.5993180e+00 1.4109994e+00 -1.0965399e-01 
1.5986857e+00 1.4102924e+00 -1.2254859e-01 
1.5958767e+00 1.4076271e+00 -9.9790275e-02 
1.5905354e+00 1.4022980e+00 -1.0017420e-01 
1.5906863e+00 1.4024833e+00 -8.9440495e-02 
1.5873282e+00 1.3990405e+00 -1.2083451e-01 
1.5850989e+00 1.3969166e+00 -9.2134073e-02 
1.5871207e+00 1.3989564e+00 -9.1646083e-02 
1.5998881e+00 1.4114308e+00 -1.3323553e-01 
1.5848258e+00 1.3966260e+00 -9.9733956e-02 
1.5829005e+00 1.3946834e+00 -1.0995128e-01 
1.5860039e+00 1.3976957e+00 -1.2180014e-01 
1.5890538e+00 1.4007102e+00 -1.2529249e-01 
1.5893184e+00 1.4010024e+00 -1.1984677e-01 
1.5763056e+00 1.3881699e+00 -9.8751731e-02 
1.5778940e+00 1.3897960e+00 -8.7742977e-02 
1.5771364e+00 1.3888943e+00 -1.2257062e-01 
1.5763371e+00 1.3882298e+00 -9.7469479e-02 
1.5785617e+00 1.3903784e+00 -1.0784558e-01 
1.5779493e+00 1.3896962e+00 -1.2064080e-01 
1.5687298e+00 1.3806182e+00 -1.0850371e-01 
1.5699990e+00 1.3819145e+00 -9.9062920e-02 
1.5694917e+00 1.3814346e+00 -8.9903578e-02 
1.5681700e+00 1.3800176e+00 -1.1911476e-01 
1.5676992e+00 1.3796749e+00 -8.9557946e-02 
1.5791228e+00 1.3908029e+00 -1.3131125e-01 
1.5668763e+00 1.3787036e+00 -1.2011373e-01 
1.5621800e+00 1.3741579e+00 -9.7328223e-02 
1.5623282e+00 1.3743398e+00 -8.6601995e-02 
1.5584623e+00 1.3704307e+00 -1.0570603e-01 
1.5581591e+00 1.3700558e+00 -1.2085633e-01 
1.5586075e+00 1.3706604e+00 -8.5767247e-02 
1.5683424e+00 1.3801444e+00 -1.2340423e-01 
1.5685995e+00 1.3804295e+00 -1.1796956e-01 
1.5564265e+00 1.3684480e+00 -9.7659834e-02 
1.5555930e+00 1.3676049e+00 -1.0326999e-01 
1.5546502e+00 1.3666583e+00 -1.0706095e-01 
1.5554154e+00 1.3674800e+00 -8.8512294e-02 
1.5570861e+00 1.3691375e+00 -9.5220529e-02 
1.5578790e+00 1.3698646e+00 -1.0602169e-01 
1.5572844e+00 1.3691955e+00 -1.1872680e-01 
1.5493346e+00 1.3613361e+00 -1.1740797e-01 
1.5481547e+00 1.3602629e+00 -9.5928676e-02 
1.5483050e+00 1.3604468e+00 -8.5219003e-02 
1.5485889e+00 1.3607399e+00 -8.7528408e-02 
1.5480515e+00 1.3600314e+00 -1.1847814e-01 
1.5584371e+00 1.3702710e+00 -1.2938820e-01 
1.5406777e+00 1.3528155e+00 -1.0563262e-01 
1.5414503e+00 1.3536434e+00 -8.7139077e-02 
1.5399449e+00 1.3520988e+00 -1.0070375e-01 
1.5394852e+00 1.3515486e+00 -1.1916640e-01 
1.5396154e+00 1.3518456e+00 -8.3815224e-02 
1.5476989e+00 1.3596675e+00 -1.2151673e-01 
1.5479497e+00 1.3599473e+00 -1.1609551e-01 
1.5342323e+00 1.3464725e+00 -9.4557166e-02 