# vtk DataFile Version 4.0
vtk output
ASCII
DATASET UNSTRUCTURED_GRID
POINTS 6166 float
-4.3633327e-01 9.6409470e-01 4.4200001e+01 
-4.3633261e-01 9.6409082e-01 4.4079685e+01 
-3.2145375e-01 9.1276109e-01 4.4200001e+01 
-3.8566181e-01 8.4097892e-01 4.4200001e+01 
-3.3069235e-01 9.1895354e-01 4.4019413e+01 
-3.8473952e-01 8.3919770e-01 4.4024357e+01 
-4.3633196e-01 9.6408689e-01 4.3958702e+01 
-2.1293370e-01 8.4677851e-01 4.4200001e+01 
-2.9042658e-01 7.3813015e-01 4.4200001e+01 
-2.1019450e-01 8.4669626e-01 4.4077393e+01 
-2.8909999e-01 7.3605996e-01 4.4073399e+01 
-3.2963324e-01 9.1929907e-01 4.3898094e+01 
-3.8679782e-01 8.4179753e-01 4.3889645e+01 
-2.0740938e-01 8.4661204e-01 4.3952713e+01 
-4.3633130e-01 9.6408290e-01 4.3837040e+01 
-1.1677200e-01 7.7521002e-01 4.4200001e+01 
-2.8775173e-01 7.3395580e-01 4.3944717e+01 
-1.9365783e-01 6.6203654e-01 4.4200001e+01 
-1.1309985e-01 7.7540898e-01 4.4012005e+01 
-1.9181472e-01 6.5888047e-01 4.4006447e+01 
-3.2856464e-01 9.1964108e-01 4.3776085e+01 
-3.8823184e-01 8.4352189e-01 4.3765770e+01 
-2.0457739e-01 8.4652513e-01 4.3825886e+01 
-2.8638119e-01 7.3181647e-01 4.3813885e+01 
-4.3633065e-01 9.6407896e-01 4.3714680e+01 
-1.0911675e-01 7.7426714e-01 4.3886200e+01 
-2.1001574e-02 6.8269837e-01 4.4200001e+01 
-1.8902887e-01 6.5566909e-01 4.3876659e+01 
-7.8887597e-02 5.9015810e-01 4.4200001e+01 
-3.2748649e-01 9.1997939e-01 4.3653378e+01 
-3.9889076e-01 8.5876143e-01 4.3651733e+01 
-2.0169757e-01 8.4643483e-01 4.3696846e+01 
-7.2496021e-03 6.7325598e-01 4.3947758e+01 
-1.0504345e-01 7.7307969e-01 4.3758209e+01 
-2.8498772e-01 7.2964084e-01 4.3680840e+01 
-6.3224643e-02 5.7783771e-01 4.3940754e+01 
3.5808440e-02 6.2679136e-01 4.4056572e+01 
-1.8616955e-01 6.5238589e-01 4.3744686e+01 
-4.3632996e-01 9.6407503e-01 4.3591618e+01 
-9.8678423e-03 5.4892725e-01 4.4055367e+01 
-1.8652271e-02 6.8798620e-01 4.3834026e+01 
-7.9845116e-02 5.8636194e-01 4.3823372e+01 
8.7777540e-02 5.7885915e-01 4.4200001e+01 
5.3622175e-02 5.1732427e-01 4.4200001e+01 
-3.2639861e-01 9.2031354e-01 4.3529953e+01 
-3.9894739e-01 8.5844576e-01 4.3528313e+01 
-1.9876897e-01 8.4634024e-01 4.3565521e+01 
-1.0087753e-01 7.7184403e-01 4.3627972e+01 
-2.8357074e-01 7.2742778e-01 4.3545506e+01 
-1.8323407e-01 6.4902818e-01 4.3610458e+01 
-4.3632931e-01 9.6407109e-01 4.3467831e+01 
3.1033519e-03 6.6751039e-01 4.3691772e+01 
-5.3600248e-02 5.6906003e-01 4.3676846e+01 
1.2436585e-01 5.5082864e-01 4.3886215e+01 
1.7079005e-01 5.1095647e-01 4.4054855e+01 
1.4951277e-01 4.6697062e-01 4.4053665e+01 
1.0028158e-01 4.8915190e-01 4.3877911e+01 
-4.0513036e-01 8.6722642e-01 4.3405304e+01 
-3.2530096e-01 9.2064321e-01 4.3405800e+01 
-9.6616447e-02 7.7055699e-01 4.3495411e+01 
-8.4563000e-03 6.8258613e-01 4.3574005e+01 
-1.9579062e-01 8.4624058e-01 4.3431831e+01 
2.1753120e-01 4.7335833e-01 4.4200001e+01 
2.0360756e-01 4.4289169e-01 4.4200001e+01 
-1.8021962e-01 6.4559317e-01 4.3473904e+01 
-7.0636064e-02 5.7773441e-01 4.3555408e+01 
-2.8212959e-01 7.2517604e-01 4.3407806e+01 
-4.3632865e-01 9.6406716e-01 4.3343307e+01 
1.3810426e-01 5.4143524e-01 4.3628246e+01 
-3.2419339e-01 9.2096806e-01 4.3280907e+01 
-3.9903235e-01 8.5775709e-01 4.3279266e+01 
-9.2257597e-02 7.6921552e-01 4.3360443e+01 
1.1508528e-01 4.7804743e-01 4.3612068e+01 
-1.9276154e-01 8.4613472e-01 4.3295704e+01 
1.4013666e-02 6.6131532e-01 4.3426643e+01 
-1.7712323e-01 6.4207786e-01 4.3334946e+01 
-2.8066361e-01 7.2288430e-01 4.3267666e+01 
-4.3382257e-02 5.5983055e-01 4.3403778e+01 
-4.3632799e-01 9.6406323e-01 4.3218033e+01 
3.7877345e-01 3.8273901e-01 4.4200001e+01 
3.9076596e-01 3.7443376e-01 4.3993755e+01 
-3.2307580e-01 9.2128778e-01 4.3155251e+01 
-3.9906058e-01 8.5738426e-01 4.3153610e+01 
-8.7798268e-02 7.6781619e-01 4.3222996e+01 
1.9689407e-02 6.5803534e-01 4.3290459e+01 
-6.0862999e-02 5.6866169e-01 4.3278019e+01 
-1.8968078e-01 8.4602165e-01 4.3157055e+01 
-1.7394182e-01 6.3847917e-01 4.3193501e+01 
-4.3632734e-01 9.6405929e-01 4.3091995e+01 
4.0275589e-01 3.6612594e-01 4.3787510e+01 
1.2304078e-01 5.5709994e-01 4.3330139e+01 
-2.7917209e-01 7.2055119e-01 4.3125000e+01 
2.5336364e-01 4.4907436e-01 4.3468094e+01 
2.3670304e-01 4.1684708e-01 4.3469433e+01 
1.3086085e-01 4.6634668e-01 4.3336948e+01 
-3.8351217e-01 8.3473074e-01 4.3036392e+01 
-3.2194808e-01 9.2160189e-01 4.3028820e+01 
2.5518833e-02 6.5462554e-01 4.3151749e+01 
-8.3235659e-02 7.6635528e-01 4.3082981e+01 
4.1474071e-01 3.5781288e-01 4.3581264e+01 
-1.8654740e-01 8.4590012e-01 4.3015797e+01 
-3.2522827e-02 5.5011308e-01 4.3120937e+01 
-1.7067213e-01 6.3479382e-01 4.3049488e+01 
-4.3632668e-01 9.6405542e-01 4.2965172e+01 
-2.7765438e-01 7.1817529e-01 4.2979721e+01 
2.6620242e-01 4.4011977e-01 4.3261948e+01 
1.3584816e-02 6.7044950e-01 4.3025066e+01 
-3.2081014e-01 9.2191011e-01 4.2901604e+01 
-3.8160574e-01 8.3169121e-01 4.2902863e+01 
-7.8566879e-02 7.6482886e-01 4.2940315e+01 
-5.0480481e-02 5.5910730e-01 4.2990566e+01 
4.2671782e-01 3.4949207e-01 4.3375019e+01 
1.6821145e-01 5.2049083e-01 4.3083881e+01 
-1.8336046e-01 8.4576881e-01 4.2871841e+01 
-4.3632606e-01 9.6405160e-01 4.2837555e+01 
-1.6731077e-01 6.3101834e-01 4.2902817e+01 
1.4768846e-01 4.5400122e-01 4.3051926e+01 
-2.7610970e-01 7.1575516e-01 4.2831745e+01 
-3.1966189e-01 9.2221189e-01 4.2773579e+01 
-3.8560396e-01 8.3684862e-01 4.2767078e+01 
3.7660085e-02 6.4738947e-01 4.2866421e+01 
-7.3788933e-02 7.6323271e-01 4.2794899e+01 
4.3868470e-01 3.4116083e-01 4.3168777e+01 
-4.3632543e-01 9.6404779e-01 4.2709122e+01 
-2.0968946e-02 5.3986710e-01 4.2827656e+01 
-1.8011902e-01 8.4562629e-01 4.2725094e+01 
-1.6385415e-01 6.2714905e-01 4.2753403e+01 
-2.7453732e-01 7.1328926e-01 4.2680973e+01 
-3.1850323e-01 9.2250693e-01 4.2644733e+01 
-3.9907700e-01 8.5570478e-01 4.2643101e+01 
2.5504474e-02 6.6361672e-01 4.2734810e+01 
1.8471870e-01 5.0880390e-01 4.2796177e+01 
-6.8898737e-02 7.6156229e-01 4.2646645e+01 
-3.9438177e-02 5.4903054e-01 4.2692345e+01 
-4.3632481e-01 9.6404403e-01 4.2579861e+01 
4.5063871e-01 3.3281663e-01 4.2962532e+01 
1.6565691e-01 4.4095638e-01 4.2756321e+01 
-1.7682223e-01 8.4547096e-01 4.2575459e+01 
-1.6029853e-01 6.2318206e-01 4.2601143e+01 
-4.0415615e-01 8.6278629e-01 4.2516582e+01 
-3.1733403e-01 9.2279470e-01 4.2515053e+01 
-2.7293649e-01 7.1077597e-01 4.2527313e+01 
5.0482783e-02 6.3954860e-01 4.2569923e+01 
-4.3632418e-01 9.6404034e-01 4.2449757e+01 
-6.3893095e-02 7.5981271e-01 4.2495445e+01 
-8.6617703e-03 5.2904755e-01 4.2523201e+01 
-1.7346917e-01 8.4530097e-01 4.2422829e+01 
-1.5663996e-01 6.1911333e-01 4.2445942e+01 
3.0435190e-01 4.1341871e-01 4.2643494e+01 
4.6257737e-01 3.2445681e-01 4.2756287e+01 
-3.1615424e-01 9.2307472e-01 4.2384518e+01 
-3.9902648e-01 8.5475212e-01 4.2382885e+01 
-2.7130640e-01 7.0821363e-01 4.2370659e+01 
3.8079392e-02 6.5619886e-01 4.2433029e+01 
2.0230262e-01 4.9620378e-01 4.2497147e+01 
-4.3632355e-01 9.6403670e-01 4.2318787e+01 
-5.8768708e-02 7.5797862e-01 4.2341198e+01 
-2.7680276e-02 5.3838593e-01 4.2382599e+01 
1.8486446e-01 4.2715022e-01 4.2449394e+01 
-3.8436696e-01 8.3356136e-01 4.2264896e+01 
8.9545198e-02 5.3233254e-01 4.2382050e+01 
-3.3225983e-01 9.3122375e-01 4.2255634e+01 
-1.7005907e-01 8.4511453e-01 4.2267101e+01 
-1.5287429e-01 6.1493850e-01 4.2287693e+01 
4.7449806e-01 3.1607881e-01 4.2550037e+01 
-2.6964626e-01 7.0560038e-01 4.2210907e+01 
-4.3632296e-01 9.6403313e-01 4.2186939e+01 
6.4036883e-02 6.3103610e-01 4.2261456e+01 
-5.3522192e-02 7.5605446e-01 4.2183796e+01 
-3.7873057e-01 8.2541841e-01 4.2124020e+01 
-3.1376252e-01 9.2360973e-01 4.2120819e+01 
4.4639236e-03 5.1760370e-01 4.2206776e+01 
-1.6659111e-01 8.4490943e-01 4.2108162e+01 
-1.4899719e-01 6.1065292e-01 4.2126286e+01 
-4.3632239e-01 9.6402961e-01 4.2054195e+01 
4.8639825e-01 3.0768004e-01 4.2343792e+01 
-2.6795524e-01 7.0293444e-01 4.2047943e+01 
2.4746621e-01 4.6040925e-01 4.2191032e+01 
7.1105182e-02 6.2650448e-01 4.2102463e+01 
-3.1255043e-01 9.2386365e-01 4.1987617e+01 
-4.8150036e-02 7.5403398e-01 4.2023121e+01 
-1.5144684e-02 5.2712250e-01 4.2060505e+01 
-3.7995064e-01 8.2661813e-01 4.1980038e+01 
2.0541981e-01 4.1251117e-01 4.2130333e+01 
-1.6306458e-01 8.4468329e-01 4.1945896e+01 
-4.3632182e-01 9.6402621e-01 4.1920536e+01 
-1.4500406e-01 6.0625184e-01 4.1961609e+01 
1.3375351e-01 5.6370503e-01 4.1969833e+01 
-2.6623246e-01 7.0021385e-01 4.1881653e+01 
-3.1132740e-01 9.2410773e-01 4.1853493e+01 
-3.9880505e-01 8.5261923e-01 4.1851868e+01 
4.9827534e-01 2.9925787e-01 4.2137547e+01 
3.4194937e-01 3.8685825e-01 4.2025021e+01 
-4.2648647e-02 7.5191063e-01 4.1859051e+01 
-2.5401810e-01 7.9503769e-01 4.1808533e+01 
1.8480448e-02 5.0547802e-01 4.1877510e+01 
-4.3632126e-01 9.6402287e-01 4.1785946e+01 
-1.5947884e-01 8.4443361e-01 4.1780174e+01 
-1.4089009e-01 6.0172999e-01 4.1793541e+01 
-3.1009343e-01 9.2434150e-01 4.1718426e+01 
-4.0306881e-01 8.5845691e-01 4.1716179e+01 
8.5861288e-02 6.1683756e-01 4.1774368e+01 
-2.6447710e-01 6.9743657e-01 4.1711910e+01 
3.0427080e-01 4.1638452e-01 4.1839512e+01 
2.6751360e-01 3.7833902e-01 4.1830902e+01 
5.1012677e-01 2.9080975e-01 4.1931297e+01 
-3.7014309e-02 7.4967718e-01 4.1691463e+01 
-4.3632072e-01 9.6401966e-01 4.1650398e+01 
2.5847588e-02 4.9913955e-01 4.1707767e+01 
-1.5583332e-01 8.4415752e-01 4.1610870e+01 
-3.8322043e-01 8.2981020e-01 4.1595791e+01 
-3.0884841e-01 9.2456430e-01 4.1582397e+01 
-1.3665022e-01 5.9708190e-01 4.1621960e+01 
9.3565010e-02 6.1167872e-01 4.1605015e+01 
-2.6268822e-01 6.9460052e-01 4.1538593e+01 
-4.3632022e-01 9.6401656e-01 4.1513885e+01 
-3.1243213e-02 7.4732590e-01 4.1520226e+01 
2.7603787e-01 3.7115356e-01 4.1624012e+01 
2.8505871e-01 4.3281260e-01 4.1611507e+01 
5.2195001e-01 2.8233302e-01 4.1725052e+01 
3.3468332e-02 4.9260557e-01 4.1534447e+01 
-3.9853087e-01 8.5081697e-01 4.1443768e+01 
-3.2560509e-01 9.3245691e-01 4.1443577e+01 
-1.5212752e-01 8.4385180e-01 4.1437847e+01 
-1.3227913e-01 5.9230179e-01 4.1446728e+01 
-4.3631971e-01 9.6401358e-01 4.1376381e+01 
[...]
POINT_DATA 6166
FIELD FieldData 5
DISPLACEMENT 3 6166  float
1.7996651e+00 1.6434273e+00 -1.1337876e-01 
1.7888118e+00 1.6325232e+00 -1.1239077e-01 
1.7993097e+00 1.6429498e+00 -1.1906064e-01 
1.7997301e+00 1.6436319e+00 -1.0676193e-01 
1.7830437e+00 1.6266136e+00 -1.1730865e-01 
1.7838861e+00 1.6277156e+00 -1.0524139e-01 
1.7778982e+00 1.6215588e+00 -1.1139722e-01 
1.7990127e+00 1.6425712e+00 -1.2283979e-01 
1.7995684e+00 1.6434854e+00 -1.0599760e-01 
1.7879418e+00 1.6314436e+00 -1.2207246e-01 
1.7881472e+00 1.6320124e+00 -1.0488980e-01 
1.7720947e+00 1.6156108e+00 -1.1643933e-01 
1.7717369e+00 1.6155086e+00 -1.0418633e-01 
1.7766834e+00 1.6201276e+00 -1.2129196e-01 
1.7669234e+00 1.6105326e+00 -1.1039803e-01 
1.7987783e+00 1.6422898e+00 -1.2499907e-01 
1.7765384e+00 1.6203507e+00 -1.0376386e-01 
1.7993414e+00 1.6432191e+00 -1.0780065e-01 
1.7818046e+00 1.6252294e+00 -1.2380448e-01 
1.7818813e+00 1.6256799e+00 -1.0609122e-01 
1.7610838e+00 1.6045460e+00 -1.1556476e-01 
1.7605648e+00 1.6042836e+00 -1.0319703e-01 
1.7652316e+00 1.6086171e+00 -1.2049772e-01 
1.7647361e+00 1.6084946e+00 -1.0261936e-01 
1.7558862e+00 1.5994440e+00 -1.0939316e-01 
1.7704422e+00 1.6138086e+00 -1.2302651e-01 
1.7985916e+00 1.6420972e+00 -1.2522142e-01 
1.7701691e+00 1.6139139e+00 -1.0498519e-01 
1.7990317e+00 1.6428273e+00 -1.1160704e-01 
1.7500100e+00 1.5934179e+00 -1.1468479e-01 
1.7502884e+00 1.5939503e+00 -1.0268525e-01 
1.7535803e+00 1.5969063e+00 -1.1968916e-01 
1.7758025e+00 1.6191933e+00 -1.2353143e-01 
1.7588834e+00 1.6021903e+00 -1.2223452e-01 
1.7527341e+00 1.5964383e+00 -1.0145584e-01 
1.7756094e+00 1.6192893e+00 -1.0977057e-01 
1.7855450e+00 1.6289886e+00 -1.2408233e-01 
1.7582601e+00 1.6019503e+00 -1.0386175e-01 
1.7447857e+00 1.5882919e+00 -1.0838261e-01 
1.7857939e+00 1.6294751e+00 -1.1288992e-01 
1.7655575e+00 1.6088940e+00 -1.2290864e-01 
1.7650696e+00 1.6087157e+00 -1.0808487e-01 
1.7983767e+00 1.6418732e+00 -1.2558635e-01 
1.7986517e+00 1.6423328e+00 -1.1692372e-01 
1.7388724e+00 1.5822262e+00 -1.1379957e-01 
1.7391566e+00 1.5827677e+00 -1.0163900e-01 
1.7417233e+00 1.5849891e+00 -1.1886571e-01 
1.7471216e+00 1.5903683e+00 -1.2142785e-01 
1.7405263e+00 1.5841753e+00 -1.0027257e-01 
1.7461482e+00 1.5897830e+00 -1.0272006e-01 
1.7336205e+00 1.5770756e+00 -1.0736590e-01 
1.7526821e+00 1.5959566e+00 -1.2184013e-01 
1.7517834e+00 1.5953510e+00 -1.0767438e-01 
1.7699836e+00 1.6133312e+00 -1.2375918e-01 
1.7850946e+00 1.6285009e+00 -1.2570286e-01 
1.7851710e+00 1.6287028e+00 -1.1978341e-01 
1.7694687e+00 1.6129783e+00 -1.1592247e-01 
1.7280687e+00 1.5716236e+00 -1.0087068e-01 
1.7276697e+00 1.5709693e+00 -1.1290835e-01 
1.7351506e+00 1.5783364e+00 -1.2060584e-01 
1.7420738e+00 1.5852920e+00 -1.2120124e-01 
1.7296541e+00 1.5728587e+00 -1.1802672e-01 
1.7980798e+00 1.6415303e+00 -1.2768857e-01 
1.7982038e+00 1.6417398e+00 -1.2366849e-01 
1.7338271e+00 1.5774058e+00 -1.0156029e-01 
1.7408806e+00 1.5844135e+00 -1.0593242e-01 
1.7281066e+00 1.5716999e+00 -9.9069722e-02 
1.7223905e+00 1.5657939e+00 -1.0634378e-01 
1.7466785e+00 1.5899093e+00 -1.2202527e-01 
1.7164017e+00 1.5596477e+00 -1.1201234e-01 
1.7166985e+00 1.5602080e+00 -9.9527188e-02 
1.7229642e+00 1.5660883e+00 -1.1976777e-01 
1.7454524e+00 1.5888435e+00 -1.1406536e-01 
1.7173661e+00 1.5605094e+00 -1.1717138e-01 
1.7287383e+00 1.5718929e+00 -1.2008292e-01 
1.7212906e+00 1.5648124e+00 -1.0038178e-01 
1.7154680e+00 1.5590048e+00 -9.7845599e-02 
1.7271329e+00 1.5705851e+00 -1.0551743e-01 
1.7110943e+00 1.5544462e+00 -1.0531538e-01 
1.7976218e+00 1.6409366e+00 -1.3397692e-01 
1.7789865e+00 1.6222066e+00 -1.3260923e-01 
1.7050667e+00 1.5482583e+00 -1.1111031e-01 
1.7053703e+00 1.5488287e+00 -9.8461479e-02 
1.7105554e+00 1.5536176e+00 -1.1891296e-01 
1.7164416e+00 1.5595354e+00 -1.1917755e-01 
1.7158449e+00 1.5592618e+00 -1.0371609e-01 
1.7048522e+00 1.5479341e+00 -1.1629881e-01 
1.7085320e+00 1.5519967e+00 -9.9184103e-02 
1.6997303e+00 1.5430315e+00 -1.0428104e-01 
1.7603511e+00 1.6034772e+00 -1.3124096e-01 
1.7198193e+00 1.5629249e+00 -1.1964335e-01 
1.7026043e+00 1.5460845e+00 -9.6600808e-02 
1.7319665e+00 1.5750870e+00 -1.2270077e-01 
1.7322261e+00 1.5754411e+00 -1.1828657e-01 
1.7206004e+00 1.5638694e+00 -1.1216617e-01 
1.6947894e+00 1.5382144e+00 -9.6845895e-02 
1.6936641e+00 1.5368025e+00 -1.1020169e-01 
1.7039192e+00 1.5469524e+00 -1.1825404e-01 
1.6979173e+00 1.5409174e+00 -1.1804094e-01 
1.7417173e+00 1.5847502e+00 -1.2987159e-01 
1.6921061e+00 1.5351257e+00 -1.1540993e-01 
1.7016068e+00 1.5449418e+00 -1.0329752e-01 
1.6955436e+00 1.5389515e+00 -9.7965747e-02 
1.6882987e+00 1.5315491e+00 -1.0324041e-01 
1.6895078e+00 1.5329312e+00 -9.5334299e-02 
1.7133442e+00 1.5563719e+00 -1.2135000e-01 
1.6925138e+00 1.5354886e+00 -1.1757626e-01 
1.6821924e+00 1.5252788e+00 -1.0928778e-01 
1.6827528e+00 1.5261272e+00 -9.5648758e-02 
1.6850425e+00 1.5279803e+00 -1.1715060e-01 
1.6899091e+00 1.5332090e+00 -1.0143218e-01 
1.7230878e+00 1.5660272e+00 -1.2849949e-01 
1.6975129e+00 1.5405024e+00 -1.1836571e-01 
1.6791197e+00 1.5220772e+00 -1.1450218e-01 
1.6767968e+00 1.5199978e+00 -1.0219317e-01 
1.6823193e+00 1.5256698e+00 -9.6728407e-02 
1.6948618e+00 1.5380069e+00 -1.1022650e-01 
1.6761711e+00 1.5195388e+00 -9.4045825e-02 
1.6706506e+00 1.5136855e+00 -1.0836729e-01 
1.6705227e+00 1.5138415e+00 -9.4647519e-02 
1.6781685e+00 1.5210800e+00 -1.1634822e-01 
1.6719238e+00 1.5147994e+00 -1.1624131e-01 
1.7044588e+00 1.5473063e+00 -1.2712665e-01 
1.6652250e+00 1.5083778e+00 -1.0114063e-01 
1.6751491e+00 1.5183665e+00 -1.0101045e-01 
1.6658856e+00 1.5087818e+00 -1.1357503e-01 
1.6688502e+00 1.5121447e+00 -9.5468991e-02 
1.6625879e+00 1.5058997e+00 -9.2735708e-02 
1.6590394e+00 1.5020232e+00 -1.0744017e-01 
1.6593691e+00 1.5026309e+00 -9.4133444e-02 
1.6663258e+00 1.5091784e+00 -1.1564627e-01 
1.6715430e+00 1.5144106e+00 -1.1643209e-01 
1.6585535e+00 1.5013674e+00 -1.1531126e-01 
1.6630154e+00 1.5061988e+00 -9.9077091e-02 
1.6535841e+00 1.4966886e+00 -1.0008316e-01 
1.6858382e+00 1.5285976e+00 -1.2575279e-01 
1.6681789e+00 1.5111985e+00 -1.0824230e-01 
1.6523970e+00 1.4952329e+00 -1.1262796e-01 
1.6551317e+00 1.4983695e+00 -9.4190881e-02 
1.6479809e+00 1.4911935e+00 -9.3287066e-02 
1.6473578e+00 1.4902935e+00 -1.0650895e-01 
1.6487511e+00 1.4920069e+00 -9.1401197e-02 
1.6514289e+00 1.4942192e+00 -1.1435749e-01 
1.6418713e+00 1.4849293e+00 -9.9018306e-02 
1.6449260e+00 1.4876796e+00 -1.1436077e-01 
1.6477042e+00 1.4908059e+00 -9.8656490e-02 
1.6386454e+00 1.4814215e+00 -1.1166029e-01 
1.6411566e+00 1.4843385e+00 -9.2888646e-02 
1.6575162e+00 1.5002809e+00 -1.1728922e-01 
1.6672270e+00 1.5099019e+00 -1.2437751e-01 
1.6356037e+00 1.4784892e+00 -1.0557113e-01 
1.6359465e+00 1.4791154e+00 -9.1932856e-02 
1.6346517e+00 1.4778535e+00 -9.0042599e-02 
1.6391225e+00 1.4818565e+00 -1.1363094e-01 
1.6445729e+00 1.4873215e+00 -1.1442223e-01 
1.6300864e+00 1.4730983e+00 -9.7948760e-02 
1.6310288e+00 1.4737231e+00 -1.1339006e-01 
1.6351080e+00 1.4781781e+00 -9.6650653e-02 
1.6404964e+00 1.4833950e+00 -1.0621410e-01 
1.6253196e+00 1.4684596e+00 -9.0374470e-02 
1.6345955e+00 1.4774513e+00 -1.0662443e-01 
1.6240580e+00 1.4669144e+00 -1.0380632e-01 
1.6246223e+00 1.4673393e+00 -1.1067133e-01 
1.6269110e+00 1.4700398e+00 -9.1566727e-02 
1.6486242e+00 1.4912142e+00 -1.2299771e-01 
1.6202811e+00 1.4634312e+00 -8.8662021e-02 
1.6182302e+00 1.4611984e+00 -9.6873164e-02 
1.6236348e+00 1.4663088e+00 -1.1227816e-01 
1.6168568e+00 1.4594914e+00 -1.1239593e-01 
1.6126477e+00 1.4557476e+00 -8.9000463e-02 
1.6118804e+00 1.4546720e+00 -1.0367391e-01 
1.6192052e+00 1.4621950e+00 -9.6229985e-02 
1.6103202e+00 1.4529792e+00 -1.0966204e-01 
1.6123899e+00 1.4554673e+00 -9.0219505e-02 
1.6063004e+00 1.4492257e+00 -9.5790267e-02 
1.6300321e+00 1.4725442e+00 -1.2161664e-01 
1.6056315e+00 1.4487312e+00 -8.7255798e-02 
1.6169279e+00 1.4595551e+00 -1.1273701e-01 
1.6093240e+00 1.4519395e+00 -1.1120345e-01 
1.5999069e+00 1.4426566e+00 -1.0271691e-01 
1.6023997e+00 1.4449772e+00 -1.1137691e-01 
1.6061158e+00 1.4490782e+00 -9.4148234e-02 
1.5997113e+00 1.4427675e+00 -8.7832682e-02 
1.6117452e+00 1.4545246e+00 -1.0413858e-01 
1.5957295e+00 1.4383322e+00 -1.0862758e-01 
1.5942931e+00 1.4371794e+00 -9.4700165e-02 
1.5975868e+00 1.4406152e+00 -8.8853396e-02 
1.5972898e+00 1.4398667e+00 -1.1006376e-01 
1.5906956e+00 1.4337488e+00 -8.5826591e-02 
1.5878587e+00 1.4305679e+00 -1.0175117e-01 
1.5882239e+00 1.4312286e+00 -8.7456100e-02 
1.6114604e+00 1.4539009e+00 -1.2023436e-01 
1.6017874e+00 1.4443222e+00 -1.1320550e-01 
1.5876518e+00 1.4301745e+00 -1.1033290e-01 
1.5838768e+00 1.4267079e+00 -9.4879977e-02 
1.5895896e+00 1.4324757e+00 -9.3731239e-02 
1.5822144e+00 1.4250654e+00 -9.3605250e-02 
1.5808450e+00 1.4233969e+00 -1.0756391e-01 
1.5824952e+00 1.4254766e+00 -8.7468512e-02 
1.5757371e+00 1.4184091e+00 -1.0078001e-01 
1.5760577e+00 1.4190258e+00 -8.6509816e-02 
1.5798262e+00 1.4223366e+00 -1.0896773e-01 
1.5754660e+00 1.4184777e+00 -8.4374972e-02 
1.5852150e+00 1.4277101e+00 -1.1098541e-01 
1.5846717e+00 1.4273083e+00 -1.0419234e-01 
1.5928972e+00 1.4352645e+00 -1.1884467e-01 
1.5726073e+00 1.4150784e+00 -1.0926227e-01 
1.5700616e+00 1.4128802e+00 -9.2509046e-02 
1.5743464e+00 1.4171870e+00 -9.2459276e-02 
1.5656588e+00 1.4081619e+00 -1.0647718e-01 
1.5652505e+00 1.4082069e+00 -8.4743805e-02 
1.5635468e+00 1.4061847e+00 -9.9800177e-02 
1.5671033e+00 1.4100460e+00 -8.6054310e-02 
1.5646303e+00 1.4070926e+00 -1.0781545e-01 
1.5599388e+00 1.4029115e+00 -8.2896776e-02 
1.5578424e+00 1.4006270e+00 -9.1407232e-02 
1.5572515e+00 1.3996782e+00 -1.0816493e-01 
1.5661024e+00 1.4086841e+00 -1.0263599e-01 
1.5648146e+00 1.4072562e+00 -1.0889119e-01 
1.5743611e+00 1.4166657e+00 -1.1745308e-01 
1.5588003e+00 1.4016001e+00 -9.1165781e-02 
1.5516655e+00 1.3945739e+00 -8.4046401e-02 
1.5511776e+00 1.3937985e+00 -9.7886868e-02 
1.5501574e+00 1.3926203e+00 -1.0536771e-01 
1.5514081e+00 1.3943154e+00 -8.4622577e-02 
1.5455430e+00 1.3883003e+00 -9.0295605e-02 
1.5513337e+00 1.3937657e+00 -1.0659733e-01 
1.5440993e+00 1.3870398e+00 -8.1396051e-02 
1.5415808e+00 1.3839675e+00 -1.0704125e-01 
1.5389415e+00 1.3815192e+00 -9.7829714e-02 
1.5393240e+00 1.3822122e+00 -8.2897052e-02 
1.5429446e+00 1.3857093e+00 -8.9855693e-02 
1.5484169e+00 1.3909431e+00 -1.0175222e-01 
1.5558546e+00 1.3981045e+00 -1.1606158e-01 
1.5343381e+00 1.3767629e+00 -1.0423072e-01 
1.5453702e+00 1.3877521e+00 -1.0791074e-01 
1.5331669e+00 1.3759049e+00 -8.9174069e-02 
1.5353974e+00 1.3782756e+00 -8.3167508e-02 
1.5349841e+00 1.3773814e+00 -1.0530926e-01 
1.5265212e+00 1.3690790e+00 -9.6831709e-02 
1.5269091e+00 1.3697842e+00 -8.1742406e-02 
1.5279412e+00 1.3708569e+00 -7.9867959e-02 
1.5255828e+00 1.3679357e+00 -1.0589041e-01 
1.5267690e+00 1.3695062e+00 -8.8527098e-02 
1.5207148e+00 1.3634396e+00 -8.8052906e-02 
1.5307486e+00 1.3732542e+00 -9.9722661e-02 
1.5373807e+00 1.3795847e+00 -1.1466591e-01 
1.5181849e+00 1.3605803e+00 -1.0306620e-01 
1.5190606e+00 1.3619183e+00 -8.1688449e-02 
1.5274274e+00 1.3697704e+00 -1.0670406e-01 
1.5140266e+00 1.3565662e+00 -9.5826671e-02 
1.5144215e+00 1.3572824e+00 -8.0583729e-02 
1.5179743e+00 1.3603431e+00 -1.0400533e-01 
1.5114511e+00 1.3543528e+00 -7.8313686e-02 
1.5081884e+00 1.3508986e+00 -8.6929925e-02 
1.5092449e+00 1.3515739e+00 -1.0471024e-01 
1.5102617e+00 1.3529788e+00 -8.7179437e-02 
1.5014596e+00 1.3439865e+00 -9.4817594e-02 
1.5018568e+00 1.3447049e+00 -7.9415821e-02 
1.5016865e+00 1.3440638e+00 -1.0187567e-01 
1.5189420e+00 1.3611095e+00 -1.1326661e-01 
1.5023869e+00 1.3452342e+00 -8.0185562e-02 
1.5098916e+00 1.3523813e+00 -9.7439751e-02 
1.5096290e+00 1.3519399e+00 -1.0553513e-01 
1.4955833e+00 1.3382865e+00 -8.5794054e-02 
1.5006909e+00 1.3430399e+00 -1.0267560e-01 
1.4946197e+00 1.3375173e+00 -7.6736465e-02 
1.4925603e+00 1.3348739e+00 -1.0349674e-01 
1.4959005e+00 1.3385818e+00 -8.7189347e-02 
1.4888059e+00 1.3313286e+00 -9.3801498e-02 
1.4892139e+00 1.3320649e+00 -7.8255147e-02 
1.4848366e+00 1.3272043e+00 -1.0065086e-01 
1.5005361e+00 1.3426750e+00 -1.1187907e-01 
1.4829015e+00 1.3256097e+00 -8.4667608e-02 
1.4853716e+00 1.3282167e+00 -7.8658998e-02 
1.4915886e+00 1.3338829e+00 -1.0411885e-01 
1.4898146e+00 1.3322569e+00 -9.7238995e-02 
1.4833653e+00 1.3257033e+00 -1.0134745e-01 
1.4760832e+00 1.3186084e+00 -9.2787609e-02 
1.4764894e+00 1.3193489e+00 -7.7085532e-02 
1.4774450e+00 1.3203462e+00 -7.5126648e-02 
1.4755194e+00 1.3178284e+00 -1.0225087e-01 
1.4786810e+00 1.3213421e+00 -8.6588353e-02 
1.4701384e+00 1.3128525e+00 -8.3530404e-02 
1.4676331e+00 1.3099982e+00 -9.9395707e-02 
1.4676188e+00 1.3102992e+00 -8.4866859e-02 
1.4821711e+00 1.3242997e+00 -1.1048594e-01 
1.4680033e+00 1.3108571e+00 -7.7108733e-02 
1.4737633e+00 1.3160560e+00 -1.0245349e-01 
1.4632802e+00 1.3058121e+00 -9.1752544e-02 
1.4636867e+00 1.3065521e+00 -7.5905949e-02 
1.4658934e+00 1.3082321e+00 -1.0003203e-01 
1.4715564e+00 1.3139808e+00 -9.6418358e-02 
1.4599084e+00 1.3028255e+00 -7.3496923e-02 
1.4573007e+00 1.3000239e+00 -8.2379155e-02 
1.4581095e+00 1.3004246e+00 -1.0097509e-01 
1.4608631e+00 1.3035343e+00 -8.5263260e-02 
1.4503937e+00 1.2929367e+00 -9.0722226e-02 
1.4508146e+00 1.2936953e+00 -7.4728474e-02 
1.4500397e+00 1.2924235e+00 -9.8103859e-02 
1.4638362e+00 1.3059617e+00 -1.0909217e-01 
1.4502684e+00 1.2931437e+00 -7.5536065e-02 
1.4558367e+00 1.2981356e+00 -1.0103696e-01 
1.4443809e+00 1.2871250e+00 -8.1234649e-02 
1.4481815e+00 1.2905366e+00 -9.8681860e-02 
1.4536510e+00 1.2960680e+00 -9.5846012e-02 
1.4411820e+00 1.2838123e+00 -8.6784951e-02 
1.4419999e+00 1.2849493e+00 -7.1830556e-02 
1.4403160e+00 1.2826525e+00 -9.9661611e-02 
1.4374313e+00 1.2800019e+00 -8.9687429e-02 
1.4424529e+00 1.2851397e+00 -8.4255308e-02 
1.4362688e+00 1.2791932e+00 -7.2750844e-02 
1.4320682e+00 1.2744799e+00 -9.6785590e-02 
1.4313763e+00 1.2741523e+00 -8.0079503e-02 
1.4455583e+00 1.2877012e+00 -1.0769445e-01 
1.4321667e+00 1.2750601e+00 -7.4884236e-02 
1.4373214e+00 1.2796555e+00 -9.9381253e-02 
1.4308233e+00 1.2732016e+00 -9.7466409e-02 
1.4363037e+00 1.2787112e+00 -9.6182220e-02 
1.4244295e+00 1.2670321e+00 -8.8589683e-02 
1.4248536e+00 1.2677954e+00 -7.2376341e-02 
1.4237108e+00 1.2667032e+00 -7.0141852e-02 
1.4222174e+00 1.2645934e+00 -9.8315120e-02 
1.4183855e+00 1.2611942e+00 -7.8932449e-02 
1.4205199e+00 1.2632495e+00 -8.2712978e-02 
1.4138471e+00 1.2563065e+00 -9.5444389e-02 
1.4273467e+00 1.2695249e+00 -1.0629081e-01 
1.4114825e+00 1.2541163e+00 -8.7459132e-02 
1.4119135e+00 1.2548871e+00 -7.1241051e-02 
1.4139224e+00 1.2568868e+00 -7.2190277e-02 
1.4181160e+00 1.2605637e+00 -9.4800390e-02 
1.4151357e+00 1.2575198e+00 -9.7759373e-02 
1.4094864e+00 1.2519258e+00 -9.5806532e-02 
1.4054828e+00 1.2483264e+00 -7.7800065e-02 
1.4055066e+00 1.2485532e+00 -6.8456784e-02 
1.4041585e+00 1.2465839e+00 -9.6988887e-02 
1.4036976e+00 1.2465515e+00 -7.8066431e-02 
1.3986323e+00 1.2413082e+00 -8.6330637e-02 
1.3983214e+00 1.2413509e+00 -6.9313005e-02 
1.3959273e+00 1.2384367e+00 -9.4121009e-02 
1.4091773e+00 1.2514056e+00 -1.0489062e-01 
1.3958571e+00 1.2388891e+00 -7.0436403e-02 
1.3926699e+00 1.2355597e+00 -7.6669410e-02 
1.3942521e+00 1.2367333e+00 -9.4754532e-02 
1.3986412e+00 1.2412572e+00 -8.8696875e-02 
1.3997902e+00 1.2421927e+00 -9.8130271e-02 
1.3927492e+00 1.2352366e+00 -9.4602272e-02 
1.3875732e+00 1.2306879e+00 -6.6817343e-02 
1.3858615e+00 1.2285879e+00 -8.5205577e-02 
1.3862954e+00 1.2293584e+00 -6.9004908e-02 
1.3863988e+00 1.2288753e+00 -9.5670708e-02 
1.3857912e+00 1.2287207e+00 -7.6147176e-02 
1.3799500e+00 1.2228954e+00 -7.5556017e-02 
1.3783052e+00 1.2208753e+00 -9.2803188e-02 
1.3910599e+00 1.2333513e+00 -1.0351364e-01 
1.3780713e+00 1.2211807e+00 -6.8724893e-02 
1.3750390e+00 1.2181745e+00 -6.7072585e-02 
1.3731991e+00 1.2159822e+00 -8.4085181e-02 
1.3766565e+00 1.2191952e+00 -9.3466088e-02 
1.3816997e+00 1.2241639e+00 -9.6754409e-02 
1.3818643e+00 1.2244321e+00 -9.2043713e-02 
1.3699175e+00 1.2131102e+00 -6.5210722e-02 
1.3754526e+00 1.2182274e+00 -8.3410487e-02 
1.3689305e+00 1.2114789e+00 -9.4366506e-02 
1.3673328e+00 1.2103306e+00 -7.4448369e-02 
1.3721619e+00 1.2147213e+00 -9.3006328e-02 
1.3681656e+00 1.2111830e+00 -7.4275181e-02 
1.3606213e+00 1.2034584e+00 -8.2978778e-02 
1.3609684e+00 1.2036196e+00 -9.1510430e-02 
1.3729675e+00 1.2153214e+00 -1.0210212e-01 
1.3605603e+00 1.2037603e+00 -6.7052618e-02 
1.3587242e+00 1.2019417e+00 -6.5456703e-02 
1.3593532e+00 1.2019730e+00 -9.2197835e-02 
1.3547887e+00 1.1978587e+00 -7.3356509e-02 
1.3636423e+00 1.2061683e+00 -9.5376112e-02 
1.3638006e+00 1.2064317e+00 -9.0669498e-02 
1.3525304e+00 1.1958222e+00 -6.3636445e-02 
1.3517505e+00 1.1943880e+00 -9.3078479e-02 
1.3481286e+00 1.1910431e+00 -8.1869803e-02 
1.3485632e+00 1.1918101e+00 -6.5739773e-02 
1.3545349e+00 1.1974452e+00 -8.0416776e-02 
1.3541657e+00 1.1968116e+00 -9.1592558e-02 
1.3508132e+00 1.1939352e+00 -7.2450817e-02 
1.3456010e+00 1.1887245e+00 -7.2546169e-02 
1.3439254e+00 1.1866734e+00 -9.0229444e-02 
1.3423461e+00 1.1854881e+00 -7.2277687e-02 
1.3549372e+00 1.1973652e+00 -1.0069599e-01 
1.3420498e+00 1.1853938e+00 -6.2978059e-02 
1.3433237e+00 1.1866264e+00 -6.5423213e-02 
1.3423413e+00 1.1850542e+00 -9.0948053e-02 
1.3456606e+00 1.1882836e+00 -9.3996249e-02 
1.3458108e+00 1.1885424e+00 -8.9300804e-02 
1.3357397e+00 1.1787403e+00 -8.0770984e-02 
1.3361579e+00 1.1794887e+00 -6.4680129e-02 
1.3352493e+00 1.1783472e+00 -7.5896733e-02 
1.3354062e+00 1.1788102e+00 -6.2107787e-02 
1.3352352e+00 1.1782856e+00 -7.8170687e-02 
1.3348701e+00 1.1776052e+00 -9.1798231e-02 
1.3365947e+00 1.1796225e+00 -7.9088688e-02 
1.3362429e+00 1.1790000e+00 -9.0181038e-02 
1.3337398e+00 1.1769782e+00 -7.0685945e-02 
1.3300021e+00 1.1732314e+00 -7.1198523e-02 
1.3297004e+00 1.1731321e+00 -6.1929896e-02 
1.3271677e+00 1.1700263e+00 -8.8945024e-02 
1.3251234e+00 1.1685218e+00 -6.4339146e-02 
1.3263429e+00 1.1697726e+00 -6.3824683e-02 
1.3369818e+00 1.1795167e+00 -9.9290632e-02 
1.3246850e+00 1.1679509e+00 -7.0832103e-02 
1.3234452e+00 1.1665295e+00 -7.9676524e-02 
1.3256257e+00 1.1684524e+00 -8.9731321e-02 
1.3277527e+00 1.1705002e+00 -9.2619821e-02 
1.3278959e+00 1.1707542e+00 -8.7935634e-02 
1.3177576e+00 1.1610800e+00 -7.0148543e-02 
1.3185604e+00 1.1620961e+00 -6.0609106e-02 
1.3182490e+00 1.1611091e+00 -9.0532169e-02 
1.3169262e+00 1.1603025e+00 -6.8928659e-02 
1.3187264e+00 1.1618768e+00 -7.7784315e-02 
1.3183895e+00 1.1612754e+00 -8.8789061e-02 
1.3112532e+00 1.1544353e+00 -7.8602999e-02 
1.3119644e+00 1.1553233e+00 -7.0438541e-02 
1.3116645e+00 1.1551880e+00 -6.2609404e-02 
1.3106835e+00 1.1536641e+00 -8.7696202e-02 
1.3096311e+00 1.1531919e+00 -6.2267181e-02 
1.3191057e+00 1.1617678e+00 -9.7883284e-02 
1.3091767e+00 1.1521257e+00 -8.8510878e-02 
1.3056040e+00 1.1490306e+00 -6.9095612e-02 
1.3053046e+00 1.1489331e+00 -5.9836123e-02 
1.3020219e+00 1.1453093e+00 -7.6269276e-02 
1.3019254e+00 1.1449112e+00 -8.9285202e-02 
1.3019640e+00 1.1456389e+00 -5.9146490e-02 
1.3099244e+00 1.1528050e+00 -9.1243260e-02 
1.3100612e+00 1.1530529e+00 -8.6569518e-02 
1.3003180e+00 1.1437744e+00 -6.9400936e-02 
1.2997923e+00 1.1431496e+00 -7.4248314e-02 
1.2991405e+00 1.1424325e+00 -7.7532351e-02 
1.2995557e+00 1.1431898e+00 -6.1584719e-02 
1.3003644e+00 1.1438917e+00 -6.7230053e-02 
1.3009242e+00 1.1442266e+00 -7.6464504e-02 
1.3006009e+00 1.1436363e+00 -8.7389544e-02 
1.2944797e+00 1.1375991e+00 -8.6453259e-02 
1.2935382e+00 1.1370832e+00 -6.8062030e-02 
1.2932436e+00 1.1369900e+00 -5.8818627e-02 
1.2931921e+00 1.1369144e+00 -6.0755499e-02 
1.2929906e+00 1.1360763e+00 -8.7331042e-02 
1.3013015e+00 1.1441050e+00 -9.6475154e-02 
1.2871217e+00 1.1305321e+00 -7.6472498e-02 
1.2875448e+00 1.1312948e+00 -6.0573865e-02 
1.2862296e+00 1.1297330e+00 -7.2218195e-02 
1.2858660e+00 1.1290013e+00 -8.8054962e-02 
1.2856250e+00 1.1294613e+00 -5.7699304e-02 
1.2921573e+00 1.1351898e+00 -8.9865826e-02 
1.2922894e+00 1.1354331e+00 -8.5204557e-02 
1.2815630e+00 1.1252271e+00 -6.7051552e-02 