# vtk DataFile Version 4.0
vtk output
ASCII
DATASET UNSTRUCTURED_GRID
POINTS 6166 float
-4.3633327e-01 9.6409470e-01 4.4200001e+01 
-4.3633261e-01 9.6409082e-01 4.4079685e+01 
-3.2145375e-01 9.1276109e-01 4.4200001e+01 
-3.8566181e-01 8.4097892e-01 4.4200001e+01 
-3.3069235e-01 9.1895354e-01 4.4019413e+01 
-3.8473952e-01 8.3919770e-01 4.4024357e+01 
-4.3633196e-01 9.6408689e-01 4.3958702e+01 
-2.1293370e-01 8.4677851e-01 4.4200001e+01 
-2.9042658e-01 7.3813015e-01 4.4200001e+01 
-2.1019450e-01 8.4669626e-01 4.4077393e+01 
-2.8909999e-01 7.3605996e-01 4.4073399e+01 
-3.2963324e-01 9.1929907e-01 4.3898094e+01 
-3.8679782e-01 8.4179753e-01 4.3889645e+01 
-2.0740938e-01 8.4661204e-01 4.3952713e+01 
-4.3633130e-01 9.6408290e-01 4.3837040e+01 
-1.1677200e-01 7.7521002e-01 4.4200001e+01 
-2.8775173e-01 7.3395580e-01 4.3944717e+01 
-1.9365783e-01 6.6203654e-01 4.4200001e+01 
-1.1309985e-01 7.7540898e-01 4.4012005e+01 
-1.9181472e-01 6.5888047e-01 4.4006447e+01 
-3.2856464e-01 9.1964108e-01 4.3776085e+01 
-3.8823184e-01 8.4352189e-01 4.3765770e+01 
-2.0457739e-01 8.4652513e-01 4.3825886e+01 
-2.8638119e-01 7.3181647e-01 4.3813885e+01 
-4.3633065e-01 9.6407896e-01 4.3714680e+01 
-1.0911675e-01 7.7426714e-01 4.3886200e+01 
-2.1001574e-02 6.8269837e-01 4.4200001e+01 
-1.8902887e-01 6.5566909e-01 4.3876659e+01 
-7.8887597e-02 5.9015810e-01 4.4200001e+01 
-3.2748649e-01 9.1997939e-01 4.3653378e+01 
-3.9889076e-01 8.5876143e-01 4.3651733e+01 
-2.0169757e-01 8.4643483e-01 4.3696846e+01 
-7.2496021e-03 6.7325598e-01 4.3947758e+01 
-1.0504345e-01 7.7307969e-01 4.3758209e+01 
-2.8498772e-01 7.2964084e-01 4.3680840e+01 
-6.3224643e-02 5.7783771e-01 4.3940754e+01 
3.5808440e-02 6.2679136e-01 4.4056572e+01 
-1.8616955e-01 6.5238589e-01 4.3744686e+01 
-4.3632996e-01 9.6407503e-01 4.3591618e+01 
-9.8678423e-03 5.4892725e-01 4.4055367e+01 
-1.8652271e-02 6.8798620e-01 4.3834026e+01 
-7.9845116e-02 5.8636194e-01 4.3823372e+01 
8.7777540e-02 5.7885915e-01 4.4200001e+01 
5.3622175e-02 5.1732427e-01 4.4200001e+01 
-3.2639861e-01 9.2031354e-01 4.3529953e+01 
-3.9894739e-01 8.5844576e-01 4.3528313e+01 
-1.9876897e-01 8.4634024e-01 4.3565521e+01 
-1.0087753e-01 7.7184403e-01 4.3627972e+01 
-2.8357074e-01 7.2742778e-01 4.3545506e+01 
-1.8323407e-01 6.4902818e-01 4.3610458e+01 
-4.3632931e-01 9.6407109e-01 4.3467831e+01 
3.1033519e-03 6.6751039e-01 4.3691772e+01 
-5.3600248e-02 5.6906003e-01 4.3676846e+01 
1.2436585e-01 5.5082864e-01 4.3886215e+01 
1.7079005e-01 5.1095647e-01 4.4054855e+01 
1.4951277e-01 4.6697062e-01 4.4053665e+01 
1.0028158e-01 4.8915190e-01 4.3877911e+01 
-4.0513036e-01 8.6722642e-01 4.3405304e+01 
-3.2530096e-01 9.2064321e-01 4.3405800e+01 
-9.6616447e-02 7.7055699e-01 4.3495411e+01 
-8.4563000e-03 6.8258613e-01 4.3574005e+01 
-1.9579062e-01 8.4624058e-01 4.3431831e+01 
2.1753120e-01 4.7335833e-01 4.4200001e+01 
2.0360756e-01 4.4289169e-01 4.4200001e+01 
-1.8021962e-01 6.4559317e-01 4.3473904e+01 
-7.0636064e-02 5.7773441e-01 4.3555408e+01 
-2.8212959e-01 7.2517604e-01 4.3407806e+01 
-4.3632865e-01 9.6406716e-01 4.3343307e+01 
1.3810426e-01 5.4143524e-01 4.3628246e+01 
-3.2419339e-01 9.2096806e-01 4.3280907e+01 
-3.9903235e-01 8.5775709e-01 4.3279266e+01 
-9.2257597e-02 7.6921552e-01 4.3360443e+01 
1.1508528e-01 4.7804743e-01 4.3612068e+01 
-1.9276154e-01 8.4613472e-01 4.3295704e+01 
1.4013666e-02 6.6131532e-01 4.3426643e+01 
-1.7712323e-01 6.4207786e-01 4.3334946e+01 
-2.8066361e-01 7.2288430e-01 4.3267666e+01 
-4.3382257e-02 5.5983055e-01 4.3403778e+01 
-4.3632799e-01 9.6406323e-01 4.3218033e+01 
3.7877345e-01 3.8273901e-01 4.4200001e+01 
3.9076596e-01 3.7443376e-01 4.3993755e+01 
-3.2307580e-01 9.2128778e-01 4.3155251e+01 
-3.9906058e-01 8.5738426e-01 4.3153610e+01 
-8.7798268e-02 7.6781619e-01 4.3222996e+01 
1.9689407e-02 6.5803534e-01 4.3290459e+01 
-6.0862999e-02 5.6866169e-01 4.3278019e+01 
-1.8968078e-01 8.4602165e-01 4.3157055e+01 
-1.7394182e-01 6.3847917e-01 4.3193501e+01 
-4.3632734e-01 9.6405929e-01 4.3091995e+01 
4.0275589e-01 3.6612594e-01 4.3787510e+01 
1.2304078e-01 5.5709994e-01 4.3330139e+01 
-2.7917209e-01 7.2055119e-01 4.3125000e+01 
2.5336364e-01 4.4907436e-01 4.3468094e+01 
2.3670304e-01 4.1684708e-01 4.3469433e+01 
1.3086085e-01 4.6634668e-01 4.3336948e+01 
-3.8351217e-01 8.3473074e-01 4.3036392e+01 
-3.2194808e-01 9.2160189e-01 4.3028820e+01 
2.5518833e-02 6.5462554e-01 4.3151749e+01 
-8.3235659e-02 7.6635528e-01 4.3082981e+01 
4.1474071e-01 3.5781288e-01 4.3581264e+01 
-1.8654740e-01 8.4590012e-01 4.3015797e+01 
-3.2522827e-02 5.5011308e-01 4.3120937e+01 
-1.7067213e-01 6.3479382e-01 4.3049488e+01 
-4.3632668e-01 9.6405542e-01 4.2965172e+01 
-2.7765438e-01 7.1817529e-01 4.2979721e+01 
2.6620242e-01 4.4011977e-01 4.3261948e+01 
1.3584816e-02 6.7044950e-01 4.3025066e+01 
-3.2081014e-01 9.2191011e-01 4.2901604e+01 
-3.8160574e-01 8.3169121e-01 4.2902863e+01 
-7.8566879e-02 7.6482886e-01 4.2940315e+01 
-5.0480481e-02 5.5910730e-01 4.2990566e+01 
4.2671782e-01 3.4949207e-01 4.3375019e+01 
1.6821145e-01 5.2049083e-01 4.3083881e+01 
-1.8336046e-01 8.4576881e-01 4.2871841e+01 
-4.3632606e-01 9.6405160e-01 4.2837555e+01 
-1.6731077e-01 6.3101834e-01 4.2902817e+01 
1.4768846e-01 4.5400122e-01 4.3051926e+01 
-2.7610970e-01 7.1575516e-01 4.2831745e+01 
-3.1966189e-01 9.2221189e-01 4.2773579e+01 
-3.8560396e-01 8.3684862e-01 4.2767078e+01 
3.7660085e-02 6.4738947e-01 4.2866421e+01 
-7.3788933e-02 7.6323271e-01 4.2794899e+01 
4.3868470e-01 3.4116083e-01 4.3168777e+01 
-4.3632543e-01 9.6404779e-01 4.2709122e+01 
-2.0968946e-02 5.3986710e-01 4.2827656e+01 
-1.8011902e-01 8.4562629e-01 4.2725094e+01 
-1.6385415e-01 6.2714905e-01 4.2753403e+01 
-2.7453732e-01 7.1328926e-01 4.2680973e+01 
-3.1850323e-01 9.2250693e-01 4.2644733e+01 
-3.9907700e-01 8.5570478e-01 4.2643101e+01 
2.5504474e-02 6.6361672e-01 4.2734810e+01 
1.8471870e-01 5.0880390e-01 4.2796177e+01 
-6.8898737e-02 7.6156229e-01 4.2646645e+01 
-3.9438177e-02 5.4903054e-01 4.2692345e+01 
-4.3632481e-01 9.6404403e-01 4.2579861e+01 
4.5063871e-01 3.3281663e-01 4.2962532e+01 
1.6565691e-01 4.4095638e-01 4.2756321e+01 
-1.7682223e-01 8.4547096e-01 4.2575459e+01 
-1.6029853e-01 6.2318206e-01 4.2601143e+01 
-4.0415615e-01 8.6278629e-01 4.2516582e+01 
-3.1733403e-01 9.2279470e-01 4.2515053e+01 
-2.7293649e-01 7.1077597e-01 4.2527313e+01 
5.0482783e-02 6.3954860e-01 4.2569923e+01 
-4.3632418e-01 9.6404034e-01 4.2449757e+01 
-6.3893095e-02 7.5981271e-01 4.2495445e+01 
-8.6617703e-03 5.2904755e-01 4.2523201e+01 
-1.7346917e-01 8.4530097e-01 4.2422829e+01 
-1.5663996e-01 6.1911333e-01 4.2445942e+01 
3.0435190e-01 4.1341871e-01 4.2643494e+01 
4.6257737e-01 3.2445681e-01 4.2756287e+01 
-3.1615424e-01 9.2307472e-01 4.2384518e+01 
-3.9902648e-01 8.5475212e-01 4.2382885e+01 
-2.7130640e-01 7.0821363e-01 4.2370659e+01 
3.8079392e-02 6.5619886e-01 4.2433029e+01 
2.0230262e-01 4.9620378e-01 4.2497147e+01 
-4.3632355e-01 9.6403670e-01 4.2318787e+01 
-5.8768708e-02 7.5797862e-01 4.2341198e+01 
-2.7680276e-02 5.3838593e-01 4.2382599e+01 
1.8486446e-01 4.2715022e-01 4.2449394e+01 
-3.8436696e-01 8.3356136e-01 4.2264896e+01 
8.9545198e-02 5.3233254e-01 4.2382050e+01 
-3.3225983e-01 9.3122375e-01 4.2255634e+01 
-1.7005907e-01 8.4511453e-01 4.2267101e+01 
-1.5287429e-01 6.1493850e-01 4.2287693e+01 
4.7449806e-01 3.1607881e-01 4.2550037e+01 
-2.6964626e-01 7.0560038e-01 4.2210907e+01 
-4.3632296e-01 9.6403313e-01 4.2186939e+01 
6.4036883e-02 6.3103610e-01 4.2261456e+01 
-5.3522192e-02 7.5605446e-01 4.2183796e+01 
-3.7873057e-01 8.2541841e-01 4.2124020e+01 
-3.1376252e-01 9.2360973e-01 4.2120819e+01 
4.4639236e-03 5.1760370e-01 4.2206776e+01 
-1.6659111e-01 8.4490943e-01 4.2108162e+01 
-1.4899719e-01 6.1065292e-01 4.2126286e+01 
-4.3632239e-01 9.6402961e-01 4.2054195e+01 
4.8639825e-01 3.0768004e-01 4.2343792e+01 
-2.6795524e-01 7.0293444e-01 4.2047943e+01 
2.4746621e-01 4.6040925e-01 4.2191032e+01 
7.1105182e-02 6.2650448e-01 4.2102463e+01 
-3.1255043e-01 9.2386365e-01 4.1987617e+01 
-4.8150036e-02 7.5403398e-01 4.2023121e+01 
-1.5144684e-02 5.2712250e-01 4.2060505e+01 
-3.7995064e-01 8.2661813e-01 4.1980038e+01 
2.0541981e-01 4.1251117e-01 4.2130333e+01 
-1.6306458e-01 8.4468329e-01 4.1945896e+01 
-4.3632182e-01 9.6402621e-01 4.1920536e+01 
-1.4500406e-01 6.0625184e-01 4.1961609e+01 
1.3375351e-01 5.6370503e-01 4.1969833e+01 
-2.6623246e-01 7.0021385e-01 4.1881653e+01 
-3.1132740e-01 9.2410773e-01 4.1853493e+01 
-3.9880505e-01 8.5261923e-01 4.1851868e+01 
4.9827534e-01 2.9925787e-01 4.2137547e+01 
3.4194937e-01 3.8685825e-01 4.2025021e+01 
-4.2648647e-02 7.5191063e-01 4.1859051e+01 
-2.5401810e-01 7.9503769e-01 4.1808533e+01 
1.8480448e-02 5.0547802e-01 4.1877510e+01 
-4.3632126e-01 9.6402287e-01 4.1785946e+01 
-1.5947884e-01 8.4443361e-01 4.1780174e+01 
-1.4089009e-01 6.0172999e-01 4.1793541e+01 
-3.1009343e-01 9.2434150e-01 4.1718426e+01 
-4.0306881e-01 8.5845691e-01 4.1716179e+01 
8.5861288e-02 6.1683756e-01 4.1774368e+01 
-2.6447710e-01 6.9743657e-01 4.1711910e+01 
3.0427080e-01 4.1638452e-01 4.1839512e+01 
2.6751360e-01 3.7833902e-01 4.1830902e+01 
5.1012677e-01 2.9080975e-01 4.1931297e+01 
-3.7014309e-02 7.4967718e-01 4.1691463e+01 
-4.3632072e-01 9.6401966e-01 4.1650398e+01 
2.5847588e-02 4.9913955e-01 4.1707767e+01 
-1.5583332e-01 8.4415752e-01 4.1610870e+01 
-3.8322043e-01 8.2981020e-01 4.1595791e+01 
-3.0884841e-01 9.2456430e-01 4.1582397e+01 
-1.3665022e-01 5.9708190e-01 4.1621960e+01 
9.3565010e-02 6.1167872e-01 4.1605015e+01 
-2.6268822e-01 6.9460052e-01 4.1538593e+01 
-4.3632022e-01 9.6401656e-01 4.1513885e+01 
-3.1243213e-02 7.4732590e-01 4.1520226e+01 
2.7603787e-01 3.7115356e-01 4.1624012e+01 
2.8505871e-01 4.3281260e-01 4.1611507e+01 
5.2195001e-01 2.8233302e-01 4.1725052e+01 
3.3468332e-02 4.9260557e-01 4.1534447e+01 
-3.9853087e-01 8.5081697e-01 4.1443768e+01 
-3.2560509e-01 9.3245691e-01 4.1443577e+01 
-1.5212752e-01 8.4385180e-01 4.1437847e+01 
-1.3227913e-01 5.9230179e-01 4.1446728e+01 
-4.3631971e-01 9.6401358e-01 4.1376381e+01 
[...]
POINT_DATA 6166
FIELD FieldData 5
DISPLACEMENT 3 6166  float
5.8386666e-01 5.3309238e-01 -1.1936407e-02 
5.8041310e-01 5.2961880e-01 -1.1836561e-02 
5.8382797e-01 5.3303796e-01 -1.3750772e-02 
5.8386660e-01 5.3311032e-01 -9.8352730e-03 
5.7864720e-01 5.2782786e-01 -1.3514745e-02 
5.7882482e-01 5.2803946e-01 -9.6646938e-03 
5.7694036e-01 5.2612591e-01 -1.1736143e-02 
5.8379441e-01 5.3299385e-01 -1.4959611e-02 
5.8384466e-01 5.3309029e-01 -9.5982747e-03 
5.8027399e-01 5.2945232e-01 -1.4934196e-02 
5.8021045e-01 5.2943522e-01 -9.4716074e-03 
5.7516426e-01 5.2432436e-01 -1.3454497e-02 
5.7495844e-01 5.2415055e-01 -9.5690442e-03 
5.7669395e-01 5.2585083e-01 -1.4908295e-02 
5.7344812e-01 5.2261341e-01 -1.1635146e-02 
5.8376682e-01 5.3296018e-01 -1.5652489e-02 
5.7651651e-01 5.2572000e-01 -9.3428865e-03 
5.8381760e-01 5.3305817e-01 -1.0177890e-02 
5.7836908e-01 5.2753013e-01 -1.5607754e-02 
5.7826161e-01 5.2747023e-01 -9.9792015e-03 
5.7166171e-01 5.2080119e-01 -1.3393802e-02 
5.7140309e-01 5.2057445e-01 -9.4750384e-03 
5.7305241e-01 5.2218747e-01 -1.4881845e-02 
5.7276100e-01 5.2194291e-01 -9.2120795e-03 
5.6993610e-01 5.1908106e-01 -1.1533567e-02 
5.7475644e-01 5.2389580e-01 -1.5584733e-02 
5.8374298e-01 5.3293550e-01 -1.5729336e-02 
5.7453543e-01 5.2372265e-01 -9.8588727e-03 
5.8378237e-01 5.3301239e-01 -1.1395791e-02 
5.6813914e-01 5.1725787e-01 -1.3332629e-02 
5.6813180e-01 5.1728308e-01 -9.5147686e-03 
5.6934738e-01 5.1846033e-01 -1.4854770e-02 
5.7649845e-01 5.2564782e-01 -1.5642174e-02 
5.7108128e-01 5.2019864e-01 -1.5561141e-02 
5.6894201e-01 5.1810205e-01 -9.0791564e-03 
5.7633650e-01 5.2552247e-01 -1.1274625e-02 
5.7961196e-01 5.2878040e-01 -1.5626261e-02 
5.7074672e-01 5.1991206e-01 -9.7368844e-03 
5.6640393e-01 5.1552844e-01 -1.1431416e-02 
5.7960916e-01 5.2880818e-01 -1.2065904e-02 
5.7323617e-01 5.2236581e-01 -1.5645998e-02 
5.7297254e-01 5.2214098e-01 -1.0946592e-02 
5.8371562e-01 5.3290701e-01 -1.5852369e-02 
5.8374006e-01 5.3295523e-01 -1.3095153e-02 
5.6459630e-01 5.1369429e-01 -1.3271010e-02 
5.6458944e-01 5.1372045e-01 -9.4018755e-03 
5.6557697e-01 5.1466751e-01 -1.4827006e-02 
5.6734163e-01 5.1643664e-01 -1.5536868e-02 
5.6505752e-01 5.1419532e-01 -8.9440001e-03 
5.6689340e-01 5.1603669e-01 -9.6130865e-03 
5.6285125e-01 5.1195544e-01 -1.1328557e-02 
5.6914747e-01 5.1825309e-01 -1.5561008e-02 
5.6875873e-01 5.1790065e-01 -1.1078754e-02 
5.7469815e-01 5.2383500e-01 -1.5832704e-02 
5.7952648e-01 5.2868986e-01 -1.6153354e-02 
5.7950848e-01 5.2868795e-01 -1.4271504e-02 
5.7448006e-01 5.2363694e-01 -1.3353573e-02 
5.6106049e-01 5.1017058e-01 -9.3762148e-03 
5.6103277e-01 5.1010996e-01 -1.3208765e-02 
5.6353551e-01 5.1260781e-01 -1.5511837e-02 
5.6576961e-01 5.1485479e-01 -1.5566863e-02 
5.6173909e-01 5.1080680e-01 -1.4798474e-02 
5.8367985e-01 5.3286535e-01 -1.6529266e-02 
5.8369076e-01 5.3288722e-01 -1.5249829e-02 
5.6297362e-01 5.1209444e-01 -9.4876448e-03 
5.6527889e-01 5.1440287e-01 -1.0739973e-02 
5.6110555e-01 5.1022089e-01 -8.8067688e-03 
5.5927783e-01 5.0836158e-01 -1.1225233e-02 
5.6728935e-01 5.1638216e-01 -1.5741749e-02 
5.5744845e-01 5.0650501e-01 -1.3146220e-02 
5.5744284e-01 5.0653321e-01 -9.1737341e-03 
5.5966085e-01 5.0871015e-01 -1.5485923e-02 
5.6684494e-01 5.1595676e-01 -1.3237507e-02 
5.5783165e-01 5.0687641e-01 -1.4769011e-02 
5.6153470e-01 5.1059514e-01 -1.5475104e-02 
5.5898523e-01 5.0808340e-01 -9.3604680e-03 
5.5708402e-01 5.0617659e-01 -8.6670639e-03 
5.6091881e-01 5.1001555e-01 -1.0879786e-02 
5.5568337e-01 5.0474674e-01 -1.1121183e-02 
5.8362865e-01 5.3279662e-01 -1.8539518e-02 
5.7770485e-01 5.2683729e-01 -1.8472800e-02 
5.5384278e-01 5.0287849e-01 -1.3083088e-02 
5.5383801e-01 5.0290793e-01 -9.0584317e-03 
5.5571550e-01 5.0474167e-01 -1.5459017e-02 
5.5762500e-01 5.0666249e-01 -1.5429995e-02 
5.5731606e-01 5.0639445e-01 -1.0529653e-02 
5.5385238e-01 5.0287408e-01 -1.4738475e-02 
5.5492628e-01 5.0400156e-01 -9.2315208e-03 
5.5206740e-01 5.0111049e-01 -1.1016533e-02 
5.7178104e-01 5.2087808e-01 -1.8405896e-02 
5.5873740e-01 5.0778073e-01 -1.5514186e-02 
5.5299079e-01 5.0206053e-01 -8.5251508e-03 
5.6266052e-01 5.1172113e-01 -1.6249254e-02 
5.6271118e-01 5.1178420e-01 -1.4841855e-02 
5.5894434e-01 5.0800979e-01 -1.3124475e-02 
5.5047286e-01 4.9952579e-01 -8.7541295e-03 
5.5021560e-01 4.9923077e-01 -1.3019105e-02 
5.5364358e-01 5.0265807e-01 -1.5383532e-02 
5.5169719e-01 5.0070012e-01 -1.5431105e-02 
5.6585765e-01 5.1491952e-01 -1.8338576e-02 
5.4979920e-01 4.9879757e-01 -1.4707263e-02 
5.5280048e-01 5.0185120e-01 -1.0677873e-02 
5.5079418e-01 4.9984658e-01 -9.1004577e-03 
5.4842991e-01 4.9745280e-01 -1.0911145e-02 
5.4882354e-01 4.9787024e-01 -8.3808573e-03 
5.5674106e-01 5.0576663e-01 -1.6187530e-02 
5.5001211e-01 4.9900526e-01 -1.5392558e-02 
5.4656649e-01 4.9556148e-01 -1.2954711e-02 
5.4664284e-01 4.9567503e-01 -8.6109713e-03 
5.4760361e-01 4.9658310e-01 -1.5401981e-02 
5.4906708e-01 4.9809921e-01 -1.0315343e-02 
5.5993527e-01 5.0896174e-01 -1.8270217e-02 
5.5165952e-01 5.0066078e-01 -1.5549028e-02 
5.4566956e-01 4.9464452e-01 -1.4674727e-02 
5.4477006e-01 4.9377304e-01 -1.0804979e-02 
5.4658705e-01 4.9561641e-01 -8.9679221e-03 
5.5076212e-01 4.9978048e-01 -1.3015867e-02 
5.4457980e-01 4.9360374e-01 -8.2342010e-03 
5.4289508e-01 4.9186996e-01 -1.2889585e-02 
5.4275042e-01 4.9176109e-01 -8.5335821e-03 
5.4545617e-01 4.9442425e-01 -1.5285624e-02 
5.4343241e-01 4.9238843e-01 -1.5371532e-02 
5.5401319e-01 5.0300479e-01 -1.8201597e-02 
5.4108799e-01 4.9007148e-01 -1.0698411e-02 
5.4438603e-01 4.9339029e-01 -1.0472678e-02 
5.4146111e-01 4.9041286e-01 -1.4640779e-02 
5.4230201e-01 4.9130860e-01 -8.8330824e-03 
5.4025763e-01 4.8925871e-01 -8.0853701e-03 
5.3920150e-01 4.8815650e-01 -1.2823599e-02 
5.3919953e-01 4.8819011e-01 -8.5893683e-03 
5.4168552e-01 4.9063200e-01 -1.5295415e-02 
5.4340363e-01 4.9235836e-01 -1.5446649e-02 
5.3918117e-01 4.8811382e-01 -1.5339345e-02 
5.4051340e-01 4.8949927e-01 -1.0096912e-02 
5.3738385e-01 4.8634788e-01 -1.0591502e-02 
5.4809362e-01 4.9705160e-01 -1.8132327e-02 
5.4227990e-01 4.9125046e-01 -1.2911401e-02 
5.3717172e-01 4.8610044e-01 -1.4605375e-02 
5.3793764e-01 4.8692122e-01 -8.6970478e-03 
5.3557515e-01 4.8454678e-01 -8.5443370e-03 
5.3548557e-01 4.8442155e-01 -1.2757503e-02 
5.3585470e-01 4.8483282e-01 -7.9336520e-03 
5.3695410e-01 4.8587558e-01 -1.5179800e-02 
5.3365690e-01 4.8260191e-01 -1.0483544e-02 
5.3484809e-01 4.8375767e-01 -1.5305500e-02 
5.3565758e-01 4.8461580e-01 -1.0265110e-02 
5.3279859e-01 4.8170438e-01 -1.4568432e-02 
5.3349161e-01 4.8245233e-01 -8.5582258e-03 
5.3899431e-01 4.8791978e-01 -1.5997954e-02 
5.4217690e-01 4.9110237e-01 -1.8062187e-02 
5.3174651e-01 4.8066279e-01 -1.2690722e-02 
5.3174597e-01 4.8069847e-01 -8.3508482e-03 
5.3136820e-01 4.8032397e-01 -7.7792238e-03 
5.3303581e-01 4.8193645e-01 -1.5190531e-02 
5.3482956e-01 4.8373830e-01 -1.5339228e-02 
5.2990687e-01 4.7883314e-01 -1.0375380e-02 
5.3042924e-01 4.7931600e-01 -1.5270426e-02 
5.3163737e-01 4.8057774e-01 -9.8751104e-03 
5.3347999e-01 4.8240390e-01 -1.2812034e-02 
5.2836609e-01 4.7730339e-01 -8.0649639e-03 
5.3157437e-01 4.8048612e-01 -1.3055763e-02 
5.2806270e-01 4.7696280e-01 -1.2356540e-02 
5.2833909e-01 4.7722208e-01 -1.4529870e-02 
5.2895957e-01 4.7789833e-01 -8.4182667e-03 
5.3626269e-01 4.8515543e-01 -1.7990205e-02 
5.2679539e-01 4.7572941e-01 -7.6229004e-03 
5.2613419e-01 4.7504243e-01 -1.0266476e-02 
5.2811652e-01 4.7699267e-01 -1.5065901e-02 
5.2592283e-01 4.7478667e-01 -1.5233102e-02 
5.2433443e-01 4.7325367e-01 -7.8773405e-03 
5.2419978e-01 4.7307879e-01 -1.2553946e-02 
5.2659392e-01 4.7550714e-01 -1.0054581e-02 
5.2379072e-01 4.7265127e-01 -1.4490086e-02 
5.2433974e-01 4.7325698e-01 -8.2754605e-03 
5.2233797e-01 4.7122836e-01 -1.0156536e-02 
5.3035164e-01 4.7921404e-01 -1.7917400e-02 
5.2213377e-01 4.7104636e-01 -7.4636862e-03 
5.2605247e-01 4.7491586e-01 -1.5348259e-02 
5.2356613e-01 4.7241929e-01 -1.5005656e-02 
5.2039081e-01 4.6925271e-01 -1.2484739e-02 
5.2132571e-01 4.7016725e-01 -1.5193253e-02 
5.2241629e-01 4.7131267e-01 -9.6497238e-03 
5.2021748e-01 4.6911836e-01 -7.7600349e-03 
5.2434057e-01 4.7321835e-01 -1.2718019e-02 
5.1915050e-01 4.6798900e-01 -1.4447754e-02 
5.1851714e-01 4.6739089e-01 -1.0045631e-02 
5.1963025e-01 4.6852663e-01 -8.1318356e-03 
5.1975781e-01 4.6859428e-01 -1.4881412e-02 
5.1738101e-01 4.6627337e-01 -7.3023643e-03 
5.1655793e-01 4.6540317e-01 -1.2414096e-02 
5.1655942e-01 4.6544257e-01 -7.8649158e-03 
5.2444696e-01 4.7328091e-01 -1.7843354e-02 
5.2127761e-01 4.7011346e-01 -1.5796725e-02 
5.1663595e-01 4.6545589e-01 -1.5150840e-02 
5.1527226e-01 4.6412945e-01 -1.0311370e-02 
5.1717502e-01 4.6604562e-01 -9.8419785e-03 
5.1467347e-01 4.6353182e-01 -9.9343080e-03 
5.1441652e-01 4.6323469e-01 -1.4401477e-02 
5.1482898e-01 4.6370515e-01 -7.9875002e-03 
5.1270169e-01 4.6153131e-01 -1.2342854e-02 
5.1268727e-01 4.6155527e-01 -7.8021279e-03 
5.1418608e-01 4.6299696e-01 -1.4874082e-02 
5.1253474e-01 4.6140838e-01 -7.1392152e-03 
5.1598597e-01 4.6480027e-01 -1.5415486e-02 
5.1576060e-01 4.6459326e-01 -1.3267511e-02 
5.1854467e-01 4.6734971e-01 -1.7766599e-02 
5.1185161e-01 4.6065095e-01 -1.5105329e-02 
5.1080626e-01 4.5965013e-01 -9.8236632e-03 
5.1232713e-01 4.6117830e-01 -9.7362865e-03 
5.0958645e-01 4.5838478e-01 -1.4353353e-02 
5.0925046e-01 4.5810798e-01 -7.4527874e-03 
5.0882339e-01 4.5763832e-01 -1.2269813e-02 
5.0993192e-01 4.5879039e-01 -7.8392355e-03 
5.0935376e-01 4.5814475e-01 -1.4805398e-02 
5.0759351e-01 4.5644924e-01 -6.9728778e-03 
5.0691772e-01 4.5574662e-01 -9.7121773e-03 
5.0696808e-01 4.5574895e-01 -1.5056987e-02 
5.0985414e-01 4.5866323e-01 -1.3136584e-02 
5.0948483e-01 4.5827377e-01 -1.5148923e-02 
5.1265055e-01 4.6142992e-01 -1.7688118e-02 
5.0738275e-01 4.5621598e-01 -9.6293259e-03 
5.0492501e-01 4.5376474e-01 -7.4958326e-03 
5.0487643e-01 4.5367861e-01 -1.1902980e-02 
5.0465596e-01 4.5343715e-01 -1.4303595e-02 
5.0493836e-01 4.5378017e-01 -7.6907203e-03 
5.0300354e-01 4.5181957e-01 -9.5988270e-03 
5.0513381e-01 4.5391038e-01 -1.4679133e-02 
5.0255299e-01 4.5139280e-01 -6.8048914e-03 
5.0198424e-01 4.5074788e-01 -1.5005834e-02 
5.0099498e-01 4.4978327e-01 -1.2123686e-02 
5.0099730e-01 4.4982621e-01 -7.3710717e-03 
5.0233978e-01 4.5115685e-01 -9.5224818e-03 
5.0423640e-01 4.5302433e-01 -1.3201665e-02 
5.0676554e-01 4.5552188e-01 -1.7608251e-02 
4.9962407e-01 4.4838870e-01 -1.4250742e-02 
5.0331414e-01 4.5208013e-01 -1.5218128e-02 
4.9906474e-01 4.4787037e-01 -9.4834482e-03 
4.9984431e-01 4.4867140e-01 -7.5403177e-03 
4.9993971e-01 4.4870019e-01 -1.4589310e-02 
4.9704313e-01 4.4582126e-01 -1.2048308e-02 
4.9704599e-01 4.4586650e-01 -7.2455611e-03 
4.9741071e-01 4.4623694e-01 -6.6337422e-03 
4.9689603e-01 4.4564438e-01 -1.4951820e-02 
4.9719501e-01 4.4599822e-01 -9.4153145e-03 
4.9510172e-01 4.4389889e-01 -9.3691926e-03 
4.9860877e-01 4.4738215e-01 -1.2900962e-02 
5.0089061e-01 4.4962659e-01 -1.7525615e-02 
4.9448571e-01 4.4323650e-01 -1.4194974e-02 
4.9464628e-01 4.4346130e-01 -7.3879450e-03 
4.9761161e-01 4.4636041e-01 -1.5184775e-02 
4.9306741e-01 4.4183594e-01 -1.1971766e-02 
4.9307141e-01 4.4188315e-01 -7.1198409e-03 
4.9453065e-01 4.4327694e-01 -1.4506238e-02 
4.9216270e-01 4.4097868e-01 -6.4599402e-03 
4.9111491e-01 4.3990332e-01 -9.2554167e-03 
4.9169940e-01 4.4043556e-01 -1.4894408e-02 
4.9194449e-01 4.4073623e-01 -9.3078967e-03 
4.8906851e-01 4.3782920e-01 -1.1894778e-02 
4.8907220e-01 4.3787548e-01 -6.9923033e-03 
4.8923725e-01 4.3797767e-01 -1.4136887e-02 
4.9502644e-01 4.4374514e-01 -1.7440351e-02 
4.8934093e-01 4.3814698e-01 -7.2337599e-03 
4.9196666e-01 4.4072610e-01 -1.2580991e-02 
4.9195531e-01 4.4068930e-01 -1.5159944e-02 
4.8710287e-01 4.3588477e-01 -9.1386288e-03 
4.8903358e-01 4.3776831e-01 -1.4419430e-02 
4.8680589e-01 4.3561468e-01 -6.2846350e-03 
4.8639205e-01 4.3511868e-01 -1.4832400e-02 
4.8739335e-01 4.3617389e-01 -9.5901033e-03 
4.8504198e-01 4.3379745e-01 -1.1816914e-02 
4.8504815e-01 4.3384805e-01 -6.8678120e-03 
4.8387653e-01 4.3260920e-01 -1.4073966e-02 
4.8917243e-01 4.3787646e-01 -1.7357344e-02 
4.8306641e-01 4.3184578e-01 -9.0255449e-03 
4.8392665e-01 4.3272626e-01 -7.0777461e-03 
4.8621616e-01 4.3493924e-01 -1.5059887e-02 
4.8559847e-01 4.3434200e-01 -1.2907282e-02 
4.8351866e-01 4.3224475e-01 -1.4332684e-02 
4.8099330e-01 4.2974579e-01 -1.1740269e-02 
4.8099789e-01 4.2979622e-01 -6.7415717e-03 
4.8133940e-01 4.3014342e-01 -6.1046723e-03 
4.8097104e-01 4.2969131e-01 -1.4766075e-02 
4.8192683e-01 4.3069869e-01 -9.7326366e-03 
4.7900388e-01 4.2778090e-01 -8.9103216e-03 
4.7840285e-01 4.2712986e-01 -1.4007157e-02 
4.7827739e-01 4.2704877e-01 -9.3886917e-03 
4.8333097e-01 4.3202618e-01 -1.7270826e-02 
4.7839969e-01 4.2719632e-01 -6.9200182e-03 
4.8053926e-01 4.2925537e-01 -1.4875266e-02 
4.7691870e-01 4.2566934e-01 -1.1658130e-02 
4.7692248e-01 4.2571837e-01 -6.6133724e-03 
4.7795653e-01 4.2667776e-01 -1.4251792e-02 
4.7979879e-01 4.2853352e-01 -1.3000069e-02 
4.7575754e-01 4.2456058e-01 -5.9242640e-03 
4.7491726e-01 4.2369288e-01 -8.7915203e-03 
4.7543222e-01 4.2414951e-01 -1.4696353e-02 
4.7626013e-01 4.2503014e-01 -9.6552111e-03 
4.7281739e-01 4.2156780e-01 -1.1578597e-02 
4.7282484e-01 4.2162129e-01 -6.4862710e-03 
4.7280467e-01 4.2153272e-01 -1.3935382e-02 
4.7749892e-01 4.2618766e-01 -1.7182756e-02 
4.7275594e-01 4.2155358e-01 -6.7611006e-03 
4.7483578e-01 4.2354852e-01 -1.4771081e-02 
4.7080439e-01 4.1958258e-01 -8.6757075e-03 
4.7231987e-01 4.2104113e-01 -1.4163722e-02 
4.7411385e-01 4.2284411e-01 -1.3163866e-02 
4.6989638e-01 4.1865942e-01 -1.0506536e-02 
4.7005683e-01 4.1886407e-01 -5.7382332e-03 
4.6977082e-01 4.1848996e-01 -1.4621008e-02 
4.6869177e-01 4.1744703e-01 -1.1498144e-02 
4.7040963e-01 4.1918087e-01 -9.6887676e-03 
4.6819699e-01 4.1700000e-01 -6.1369436e-03 
4.6708575e-01 4.1581762e-01 -1.3861236e-02 
4.6666437e-01 4.1544834e-01 -8.5575702e-03 
4.7168416e-01 4.2037296e-01 -1.7090999e-02 
4.6701068e-01 4.1581175e-01 -6.9015697e-03 
4.6893954e-01 4.1765690e-01 -1.4600400e-02 
4.6679130e-01 4.1551530e-01 -1.4109989e-02 
4.6861660e-01 4.1734502e-01 -1.3604810e-02 
4.6455270e-01 4.1331401e-01 -1.1398161e-02 
4.6455988e-01 4.1336730e-01 -6.2354957e-03 
4.6423456e-01 4.1304934e-01 -5.5511226e-03 
4.6401125e-01 4.1273764e-01 -1.4539817e-02 
4.6252850e-01 4.1131869e-01 -8.4411064e-03 
4.6343383e-01 4.1221282e-01 -9.6184872e-03 
4.6128684e-01 4.1002873e-01 -1.3783380e-02 
4.6588954e-01 4.1458398e-01 -1.6994411e-02 
4.6043032e-01 4.0919739e-01 -1.1286065e-02 
4.6043983e-01 4.0925330e-01 -6.1213481e-03 
4.6118549e-01 4.0999919e-01 -6.3926755e-03 
4.6282992e-01 4.1156584e-01 -1.3513874e-02 
4.6188244e-01 4.1060942e-01 -1.4509880e-02 
4.6000156e-01 4.0873852e-01 -1.3990284e-02 
4.5842046e-01 4.0721783e-01 -8.3270920e-03 
4.5843869e-01 4.0726468e-01 -5.3624539e-03 
4.5826286e-01 4.0699989e-01 -1.4463089e-02 
4.5803478e-01 4.0683573e-01 -8.4603345e-03 
4.5633841e-01 4.0511474e-01 -1.1171962e-02 
4.5611504e-01 4.0493929e-01 -5.7677040e-03 
4.5558321e-01 4.0433609e-01 -1.3704435e-02 
4.6010792e-01 4.0881264e-01 -1.6897008e-02 
4.5543236e-01 4.0426117e-01 -6.1789216e-03 
4.5434079e-01 4.0314868e-01 -8.2113165e-03 
4.5514938e-01 4.0389571e-01 -1.3946052e-02 
4.5657349e-01 4.0533945e-01 -1.1942909e-02 
4.5703328e-01 4.0576750e-01 -1.4922936e-02 
4.5471740e-01 4.0346512e-01 -1.3930694e-02 
4.5272884e-01 4.0157068e-01 -5.1818104e-03 
4.5227155e-01 4.0105981e-01 -1.1057122e-02 
4.5228267e-01 4.0111673e-01 -5.8971471e-03 
4.5260894e-01 4.0135732e-01 -1.4382318e-02 
4.5232958e-01 4.0114748e-01 -8.1905518e-03 
4.5029038e-01 3.9911211e-01 -8.0984654e-03 
4.4997352e-01 3.9874083e-01 -1.3620539e-02 
4.5434251e-01 4.0306211e-01 -1.6804591e-02 
4.4976774e-01 3.9861503e-01 -5.9718834e-03 
4.4870237e-01 3.9755243e-01 -5.4965811e-03 
4.4823861e-01 3.9704081e-01 -1.0940742e-02 
4.4954658e-01 3.9830634e-01 -1.3870992e-02 
4.5127630e-01 4.0002483e-01 -1.4829993e-02 
4.5129445e-01 4.0005797e-01 -1.3328731e-02 
4.4710678e-01 3.9596781e-01 -5.0049284e-03 
4.4914865e-01 3.9794514e-01 -1.0701148e-02 
4.4704708e-01 3.9581349e-01 -1.4299102e-02 
4.4627219e-01 3.9510667e-01 -7.9848636e-03 
4.4816589e-01 3.9693055e-01 -1.3814969e-02 
4.4671321e-01 3.9555222e-01 -7.9289610e-03 
4.4423237e-01 3.9304796e-01 -1.0826811e-02 
4.4445413e-01 3.9324251e-01 -1.3537684e-02 
4.4858393e-01 3.9731792e-01 -1.6700616e-02 
4.4419011e-01 3.9306027e-01 -5.7706167e-03 
4.4350764e-01 3.9237812e-01 -5.2907676e-03 
4.4403613e-01 3.9281690e-01 -1.3795284e-02 
4.4227713e-01 3.9113078e-01 -7.8742011e-03 
4.4552910e-01 3.9429215e-01 -1.4734989e-02 
4.4554538e-01 3.9432400e-01 -1.3234890e-02 
4.4156966e-01 3.9045674e-01 -4.8316354e-03 
4.4157627e-01 3.9036623e-01 -1.4214235e-02 
4.4025287e-01 3.8908902e-01 -1.0709532e-02 
4.4026580e-01 3.8914713e-01 -5.5706888e-03 
4.4247288e-01 3.9130127e-01 -1.0143925e-02 
4.4243765e-01 3.9122438e-01 -1.3706148e-02 
4.4118345e-01 3.9004910e-01 -7.6756072e-03 
4.3943670e-01 3.8830397e-01 -7.7961381e-03 
4.3902728e-01 3.8784176e-01 -1.3451552e-02 
4.3831411e-01 3.8718697e-01 -7.7649178e-03 
4.4284421e-01 3.9159629e-01 -1.6595695e-02 
4.3820858e-01 3.8711020e-01 -4.8170714e-03 
4.3869931e-01 3.8759643e-01 -5.5760746e-03 
4.3861756e-01 3.8742331e-01 -1.3718605e-02 
4.3980494e-01 3.8859341e-01 -1.4636018e-02 
4.3981892e-01 3.8862416e-01 -1.3139337e-02 
4.3630600e-01 3.8516551e-01 -1.0592512e-02 
4.3631464e-01 3.8521892e-01 -5.4662405e-03 
4.3615317e-01 3.8502520e-01 -9.0546841e-03 
4.3611589e-01 3.8503325e-01 -4.6664239e-03 
4.3620235e-01 3.8506758e-01 -9.7813932e-03 
4.3619975e-01 3.8501596e-01 -1.4124728e-02 
4.3676245e-01 3.8562322e-01 -1.0058746e-02 
4.3673170e-01 3.8554838e-01 -1.3594746e-02 
4.3574202e-01 3.8463840e-01 -7.4338815e-03 
4.3438196e-01 3.8327867e-01 -7.6528094e-03 
4.3427494e-01 3.8320085e-01 -4.7144066e-03 
4.3369028e-01 3.8253507e-01 -1.3357772e-02 
4.3279934e-01 3.8172418e-01 -5.5632065e-03 
4.3328920e-01 3.8222095e-01 -5.3850450e-03 
4.3712732e-01 3.8590783e-01 -1.6487626e-02 
4.3277299e-01 3.8167945e-01 -7.6422365e-03 
4.3238872e-01 3.8127100e-01 -1.0474660e-02 
4.3329266e-01 3.8213003e-01 -1.3644775e-02 
4.3410328e-01 3.8292596e-01 -1.4534837e-02 
4.3411532e-01 3.8295555e-01 -1.3041614e-02 
4.3048117e-01 3.7940398e-01 -7.5469976e-03 
4.3074968e-01 3.7970373e-01 -4.5035658e-03 
4.3090513e-01 3.7975633e-01 -1.4033502e-02 
4.3038225e-01 3.7931600e-01 -7.1886214e-03 
4.3107417e-01 3.7996915e-01 -9.9780792e-03 
4.3104717e-01 3.7989959e-01 -1.3486344e-02 
4.2850363e-01 3.7741318e-01 -1.0360246e-02 
4.2872021e-01 3.7765497e-01 -7.7534723e-03 
4.2851171e-01 3.7747020e-01 -5.2635185e-03 
4.2843968e-01 3.7731883e-01 -1.3268544e-02 
4.2796421e-01 3.7693229e-01 -5.2004154e-03 
4.3143463e-01 3.8025004e-01 -1.6375598e-02 
4.2805153e-01 3.7692329e-01 -1.3563930e-02 
4.2660871e-01 3.7556091e-01 -7.4378541e-03 
4.2650211e-01 3.7548342e-01 -4.5017931e-03 
4.2562819e-01 3.7456203e-01 -9.7961565e-03 
4.2570424e-01 3.7459078e-01 -1.3941070e-02 
4.2546257e-01 3.7445581e-01 -4.3460405e-03 
4.2842591e-01 3.7728566e-01 -1.4430449e-02 
4.2843619e-01 3.7731364e-01 -1.2940439e-02 
4.2500260e-01 3.7396482e-01 -7.6391147e-03 
4.2484826e-01 3.7379727e-01 -9.1893207e-03 
4.2464346e-01 3.7358412e-01 -1.0244571e-02 
4.2465350e-01 3.7364364e-01 -5.1617352e-03 
4.2510235e-01 3.7407792e-01 -6.9555682e-03 
4.2540577e-01 3.7434414e-01 -9.8896045e-03 
4.2538217e-01 3.7427682e-01 -1.3372909e-02 
4.2327732e-01 3.7219599e-01 -1.3174407e-02 
4.2276397e-01 3.7175018e-01 -7.3322323e-03 
4.2265886e-01 3.7167415e-01 -4.4006901e-03 
4.2272511e-01 3.7173918e-01 -5.0230445e-03 
4.2289391e-01 3.7180477e-01 -1.3489319e-02 
4.2576379e-01 3.7461862e-01 -1.6260391e-02 
4.2081273e-01 3.6978731e-01 -1.0129672e-02 
4.2082596e-01 3.6984953e-01 -5.0616148e-03 
4.2053792e-01 3.6952588e-01 -8.7958425e-03 
4.2058653e-01 3.6951613e-01 -1.3847373e-02 
4.2025608e-01 3.6929575e-01 -4.1870698e-03 
4.2276710e-01 3.7166986e-01 -1.4323150e-02 
4.2277610e-01 3.7169671e-01 -1.2836942e-02 
4.1894788e-01 3.6796853e-01 -7.2314101e-03 