# vtk DataFile Version 4.0
vtk output
ASCII
DATASET UNSTRUCTURED_GRID
POINTS 6166 float
-4.3633327e-01 9.6409470e-01 4.4200001e+01 
-4.3633261e-01 9.6409082e-01 4.4079685e+01 
-3.2145375e-01 9.1276109e-01 4.4200001e+01 
-3.8566181e-01 8.4097892e-01 4.4200001e+01 
-3.3069235e-01 9.1895354e-01 4.4019413e+01 
-3.8473952e-01 8.3919770e-01 4.4024357e+01 
-4.3633196e-01 9.6408689e-01 4.3958702e+01 
-2.1293370e-01 8.4677851e-01 4.4200001e+01 
-2.9042658e-01 7.3813015e-01 4.4200001e+01 
-2.1019450e-01 8.4669626e-01 4.4077393e+01 
-2.8909999e-01 7.3605996e-01 4.4073399e+01 
-3.2963324e-01 9.1929907e-01 4.3898094e+01 
-3.8679782e-01 8.4179753e-01 4.3889645e+01 
-2.0740938e-01 8.4661204e-01 4.3952713e+01 
-4.3633130e-01 9.6408290e-01 4.3837040e+01 
-1.1677200e-01 7.7521002e-01 4.4200001e+01 
-2.8775173e-01 7.3395580e-01 4.3944717e+01 
-1.9365783e-01 6.6203654e-01 4.4200001e+01 
-1.1309985e-01 7.7540898e-01 4.4012005e+01 
-1.9181472e-01 6.5888047e-01 4.4006447e+01 
-3.2856464e-01 9.1964108e-01 4.3776085e+01 
-3.8823184e-01 8.4352189e-01 4.3765770e+01 
-2.0457739e-01 8.4652513e-01 4.3825886e+01 
-2.8638119e-01 7.3181647e-01 4.3813885e+01 
-4.3633065e-01 9.6407896e-01 4.3714680e+01 
-1.0911675e-01 7.7426714e-01 4.3886200e+01 
-2.1001574e-02 6.8269837e-01 4.4200001e+01 
-1.8902887e-01 6.5566909e-01 4.3876659e+01 
-7.8887597e-02 5.9015810e-01 4.4200001e+01 
-3.2748649e-01 9.1997939e-01 4.3653378e+01 
-3.9889076e-01 8.5876143e-01 4.3651733e+01 
-2.0169757e-01 8.4643483e-01 4.3696846e+01 
-7.2496021e-03 6.7325598e-01 4.3947758e+01 
-1.0504345e-01 7.7307969e-01 4.3758209e+01 
-2.8498772e-01 7.2964084e-01 4.3680840e+01 
-6.3224643e-02 5.7783771e-01 4.3940754e+01 
3.5808440e-02 6.2679136e-01 4.4056572e+01 
-1.8616955e-01 6.5238589e-01 4.3744686e+01 
-4.3632996e-01 9.6407503e-01 4.3591618e+01 
-9.8678423e-03 5.4892725e-01 4.4055367e+01 
-1.8652271e-02 6.8798620e-01 4.3834026e+01 
-7.9845116e-02 5.8636194e-01 4.3823372e+01 
8.7777540e-02 5.7885915e-01 4.4200001e+01 
5.3622175e-02 5.1732427e-01 4.4200001e+01 
-3.2639861e-01 9.2031354e-01 4.3529953e+01 
-3.9894739e-01 8.5844576e-01 4.3528313e+01 
-1.9876897e-01 8.4634024e-01 4.3565521e+01 
-1.0087753e-01 7.7184403e-01 4.3627972e+01 
-2.8357074e-01 7.2742778e-01 4.3545506e+01 
-1.8323407e-01 6.4902818e-01 4.3610458e+01 
-4.3632931e-01 9.6407109e-01 4.3467831e+01 
3.1033519e-03 6.6751039e-01 4.3691772e+01 
-5.3600248e-02 5.6906003e-01 4.3676846e+01 
1.2436585e-01 5.5082864e-01 4.3886215e+01 
1.7079005e-01 5.1095647e-01 4.4054855e+01 
1.4951277e-01 4.6697062e-01 4.4053665e+01 
1.0028158e-01 4.8915190e-01 4.3877911e+01 
-4.0513036e-01 8.6722642e-01 4.3405304e+01 
-3.2530096e-01 9.2064321e-01 4.3405800e+01 
-9.6616447e-02 7.7055699e-01 4.3495411e+01 
-8.4563000e-03 6.8258613e-01 4.3574005e+01 
-1.9579062e-01 8.4624058e-01 4.3431831e+01 
2.1753120e-01 4.7335833e-01 4.4200001e+01 
2.0360756e-01 4.4289169e-01 4.4200001e+01 
-1.8021962e-01 6.4559317e-01 4.3473904e+01 
-7.0636064e-02 5.7773441e-01 4.3555408e+01 
-2.8212959e-01 7.2517604e-01 4.3407806e+01 
-4.3632865e-01 9.6406716e-01 4.3343307e+01 
1.3810426e-01 5.4143524e-01 4.3628246e+01 
-3.2419339e-01 9.2096806e-01 4.3280907e+01 
-3.9903235e-01 8.5775709e-01 4.3279266e+01 
-9.2257597e-02 7.6921552e-01 4.3360443e+01 
1.1508528e-01 4.7804743e-01 4.3612068e+01 
-1.9276154e-01 8.4613472e-01 4.3295704e+01 
1.4013666e-02 6.6131532e-01 4.3426643e+01 
-1.7712323e-01 6.4207786e-01 4.3334946e+01 
-2.8066361e-01 7.2288430e-01 4.3267666e+01 
-4.3382257e-02 5.5983055e-01 4.3403778e+01 
-4.3632799e-01 9.6406323e-01 4.3218033e+01 
3.7877345e-01 3.8273901e-01 4.4200001e+01 
3.9076596e-01 3.7443376e-01 4.3993755e+01 
-3.2307580e-01 9.2128778e-01 4.3155251e+01 
-3.9906058e-01 8.5738426e-01 4.3153610e+01 
-8.7798268e-02 7.6781619e-01 4.3222996e+01 
1.9689407e-02 6.5803534e-01 4.3290459e+01 
-6.0862999e-02 5.6866169e-01 4.3278019e+01 
-1.8968078e-01 8.4602165e-01 4.3157055e+01 
-1.7394182e-01 6.3847917e-01 4.3193501e+01 
-4.3632734e-01 9.6405929e-01 4.3091995e+01 
4.0275589e-01 3.6612594e-01 4.3787510e+01 
1.2304078e-01 5.5709994e-01 4.3330139e+01 
-2.7917209e-01 7.2055119e-01 4.3125000e+01 
2.5336364e-01 4.4907436e-01 4.3468094e+01 
2.3670304e-01 4.1684708e-01 4.3469433e+01 
1.3086085e-01 4.6634668e-01 4.3336948e+01 
-3.8351217e-01 8.3473074e-01 4.3036392e+01 
-3.2194808e-01 9.2160189e-01 4.3028820e+01 
2.5518833e-02 6.5462554e-01 4.3151749e+01 
-8.3235659e-02 7.6635528e-01 4.3082981e+01 
4.1474071e-01 3.5781288e-01 4.3581264e+01 
-1.8654740e-01 8.4590012e-01 4.3015797e+01 
-3.2522827e-02 5.5011308e-01 4.3120937e+01 
-1.7067213e-01 6.3479382e-01 4.3049488e+01 
-4.3632668e-01 9.6405542e-01 4.2965172e+01 
-2.7765438e-01 7.1817529e-01 4.2979721e+01 
2.6620242e-01 4.4011977e-01 4.3261948e+01 
1.3584816e-02 6.7044950e-01 4.3025066e+01 
-3.2081014e-01 9.2191011e-01 4.2901604e+01 
-3.8160574e-01 8.3169121e-01 4.2902863e+01 
-7.8566879e-02 7.6482886e-01 4.2940315e+01 
-5.0480481e-02 5.5910730e-01 4.2990566e+01 
4.2671782e-01 3.4949207e-01 4.3375019e+01 
1.6821145e-01 5.2049083e-01 4.3083881e+01 
-1.8336046e-01 8.4576881e-01 4.2871841e+01 
-4.3632606e-01 9.6405160e-01 4.2837555e+01 
-1.6731077e-01 6.3101834e-01 4.2902817e+01 
1.4768846e-01 4.5400122e-01 4.3051926e+01 
-2.7610970e-01 7.1575516e-01 4.2831745e+01 
-3.1966189e-01 9.2221189e-01 4.2773579e+01 
-3.8560396e-01 8.3684862e-01 4.2767078e+01 
3.7660085e-02 6.4738947e-01 4.2866421e+01 
-7.3788933e-02 7.6323271e-01 4.2794899e+01 
4.3868470e-01 3.4116083e-01 4.3168777e+01 
-4.3632543e-01 9.6404779e-01 4.2709122e+01 
-2.0968946e-02 5.3986710e-01 4.2827656e+01 
-1.8011902e-01 8.4562629e-01 4.2725094e+01 
-1.6385415e-01 6.2714905e-01 4.2753403e+01 
-2.7453732e-01 7.1328926e-01 4.2680973e+01 
-3.1850323e-01 9.2250693e-01 4.2644733e+01 
-3.9907700e-01 8.5570478e-01 4.2643101e+01 
2.5504474e-02 6.6361672e-01 4.2734810e+01 
1.8471870e-01 5.0880390e-01 4.2796177e+01 
-6.8898737e-02 7.6156229e-01 4.2646645e+01 
-3.9438177e-02 5.4903054e-01 4.2692345e+01 
-4.3632481e-01 9.6404403e-01 4.2579861e+01 
4.5063871e-01 3.3281663e-01 4.2962532e+01 
1.6565691e-01 4.4095638e-01 4.2756321e+01 
-1.7682223e-01 8.4547096e-01 4.2575459e+01 
-1.6029853e-01 6.2318206e-01 4.2601143e+01 
-4.0415615e-01 8.6278629e-01 4.2516582e+01 
-3.1733403e-01 9.2279470e-01 4.2515053e+01 
-2.7293649e-01 7.1077597e-01 4.2527313e+01 
5.0482783e-02 6.3954860e-01 4.2569923e+01 
-4.3632418e-01 9.6404034e-01 4.2449757e+01 
-6.3893095e-02 7.5981271e-01 4.2495445e+01 
-8.6617703e-03 5.2904755e-01 4.2523201e+01 
-1.7346917e-01 8.4530097e-01 4.2422829e+01 
-1.5663996e-01 6.1911333e-01 4.2445942e+01 
3.0435190e-01 4.1341871e-01 4.2643494e+01 
4.6257737e-01 3.2445681e-01 4.2756287e+01 
-3.1615424e-01 9.2307472e-01 4.2384518e+01 
-3.9902648e-01 8.5475212e-01 4.2382885e+01 
-2.7130640e-01 7.0821363e-01 4.2370659e+01 
3.8079392e-02 6.5619886e-01 4.2433029e+01 
2.0230262e-01 4.9620378e-01 4.2497147e+01 
-4.3632355e-01 9.6403670e-01 4.2318787e+01 
-5.8768708e-02 7.5797862e-01 4.2341198e+01 
-2.7680276e-02 5.3838593e-01 4.2382599e+01 
1.8486446e-01 4.2715022e-01 4.2449394e+01 
-3.8436696e-01 8.3356136e-01 4.2264896e+01 
8.9545198e-02 5.3233254e-01 4.2382050e+01 
-3.3225983e-01 9.3122375e-01 4.2255634e+01 
-1.7005907e-01 8.4511453e-01 4.2267101e+01 
-1.5287429e-01 6.1493850e-01 4.2287693e+01 
4.7449806e-01 3.1607881e-01 4.2550037e+01 
-2.6964626e-01 7.0560038e-01 4.2210907e+01 
-4.3632296e-01 9.6403313e-01 4.2186939e+01 
6.4036883e-02 6.3103610e-01 4.2261456e+01 
-5.3522192e-02 7.5605446e-01 4.2183796e+01 
-3.7873057e-01 8.2541841e-01 4.2124020e+01 
-3.1376252e-01 9.2360973e-01 4.2120819e+01 
4.4639236e-03 5.1760370e-01 4.2206776e+01 
-1.6659111e-01 8.4490943e-01 4.2108162e+01 
-1.4899719e-01 6.1065292e-01 4.2126286e+01 
-4.3632239e-01 9.6402961e-01 4.2054195e+01 
4.8639825e-01 3.0768004e-01 4.2343792e+01 
-2.6795524e-01 7.0293444e-01 4.2047943e+01 
2.4746621e-01 4.6040925e-01 4.2191032e+01 
7.1105182e-02 6.2650448e-01 4.2102463e+01 
-3.1255043e-01 9.2386365e-01 4.1987617e+01 
-4.8150036e-02 7.5403398e-01 4.2023121e+01 
-1.5144684e-02 5.2712250e-01 4.2060505e+01 
-3.7995064e-01 8.2661813e-01 4.1980038e+01 
2.0541981e-01 4.1251117e-01 4.2130333e+01 
-1.6306458e-01 8.4468329e-01 4.1945896e+01 
-4.3632182e-01 9.6402621e-01 4.1920536e+01 
-1.4500406e-01 6.0625184e-01 4.1961609e+01 
1.3375351e-01 5.6370503e-01 4.1969833e+01 
-2.6623246e-01 7.0021385e-01 4.1881653e+01 
-3.1132740e-01 9.2410773e-01 4.1853493e+01 
-3.9880505e-01 8.5261923e-01 4.1851868e+01 
4.9827534e-01 2.9925787e-01 4.2137547e+01 
3.4194937e-01 3.8685825e-01 4.2025021e+01 
-4.2648647e-02 7.5191063e-01 4.1859051e+01 
-2.5401810e-01 7.9503769e-01 4.1808533e+01 
1.8480448e-02 5.0547802e-01 4.1877510e+01 
-4.3632126e-01 9.6402287e-01 4.1785946e+01 
-1.5947884e-01 8.4443361e-01 4.1780174e+01 
-1.4089009e-01 6.0172999e-01 4.1793541e+01 
-3.1009343e-01 9.2434150e-01 4.1718426e+01 
-4.0306881e-01 8.5845691e-01 4.1716179e+01 
8.5861288e-02 6.1683756e-01 4.1774368e+01 
-2.6447710e-01 6.9743657e-01 4.1711910e+01 
3.0427080e-01 4.1638452e-01 4.1839512e+01 
2.6751360e-01 3.7833902e-01 4.1830902e+01 
5.1012677e-01 2.9080975e-01 4.1931297e+01 
-3.7014309e-02 7.4967718e-01 4.1691463e+01 
-4.3632072e-01 9.6401966e-01 4.1650398e+01 
2.5847588e-02 4.9913955e-01 4.1707767e+01 
-1.5583332e-01 8.4415752e-01 4.1610870e+01 
-3.8322043e-01 8.2981020e-01 4.1595791e+01 
-3.0884841e-01 9.2456430e-01 4.1582397e+01 
-1.3665022e-01 5.9708190e-01 4.1621960e+01 
9.3565010e-02 6.1167872e-01 4.1605015e+01 
-2.6268822e-01 6.9460052e-01 4.1538593e+01 
-4.3632022e-01 9.6401656e-01 4.1513885e+01 
-3.1243213e-02 7.4732590e-01 4.1520226e+01 
2.7603787e-01 3.7115356e-01 4.1624012e+01 
2.8505871e-01 4.3281260e-01 4.1611507e+01 
5.2195001e-01 2.8233302e-01 4.1725052e+01 
3.3468332e-02 4.9260557e-01 4.1534447e+01 
-3.9853087e-01 8.5081697e-01 4.1443768e+01 
-3.2560509e-01 9.3245691e-01 4.1443577e+01 
-1.5212752e-01 8.4385180e-01 4.1437847e+01 
-1.3227913e-01 5.9230179e-01 4.1446728e+01 
-4.3631971e-01 9.6401358e-01 4.1376381e+01 
[...]
POINT_DATA 6166
FIELD FieldData 5
DISPLACEMENT 3 6166  float
1.5816526e+00 1.4441452e+00 -8.7664045e-02 
1.5720917e+00 1.4345409e+00 -8.6898103e-02 
1.5813575e+00 1.4437313e+00 -9.2670463e-02 
1.5816559e+00 1.4442846e+00 -8.1837013e-02 
1.5670282e+00 1.4293425e+00 -9.1283701e-02 
1.5676979e+00 1.4302647e+00 -8.0649987e-02 
1.5624777e+00 1.4248832e+00 -8.6127855e-02 
1.5811018e+00 1.4433962e+00 -9.6000917e-02 
1.5814912e+00 1.4441346e+00 -8.1165470e-02 
1.5713505e+00 1.4335957e+00 -9.5431373e-02 
1.5714294e+00 1.4340284e+00 -8.0299482e-02 
1.5573835e+00 1.4196515e+00 -9.0623170e-02 
1.5569961e+00 1.4195132e+00 -7.9837419e-02 
1.5614338e+00 1.4236289e+00 -9.4852015e-02 
1.5528097e+00 1.4151714e+00 -8.5353225e-02 
1.5808927e+00 1.4431413e+00 -9.7904421e-02 
1.5612022e+00 1.4237561e+00 -7.9419330e-02 
1.5812861e+00 1.4438910e+00 -8.2755223e-02 
1.5659419e+00 1.4281154e+00 -9.7015232e-02 
1.5659039e+00 1.4284415e+00 -8.1417367e-02 
1.5476844e+00 1.4099059e+00 -8.9958616e-02 
1.5471548e+00 1.4096266e+00 -7.9073392e-02 
1.5513468e+00 1.4134911e+00 -9.4262429e-02 
1.5508045e+00 1.4133126e+00 -7.8524679e-02 
1.5430866e+00 1.4054043e+00 -8.4574185e-02 
1.5559336e+00 1.4180564e+00 -9.6439101e-02 
1.5807126e+00 1.4429554e+00 -9.8101914e-02 
1.5555856e+00 1.4180772e+00 -8.0555737e-02 
1.5810184e+00 1.4435434e+00 -8.6109787e-02 
1.5379300e+00 1.4001046e+00 -8.9289911e-02 
1.5381068e+00 1.4005288e+00 -7.8721248e-02 
1.5410841e+00 1.4031768e+00 -9.3662135e-02 
1.5606372e+00 1.4227809e+00 -9.6832260e-02 
1.5457520e+00 1.4078233e+00 -9.5852517e-02 
1.5402309e+00 1.4026927e+00 -7.7615194e-02 
1.5603843e+00 1.4228095e+00 -8.4717199e-02 
1.5692096e+00 1.4313991e+00 -9.7223930e-02 
1.5450940e+00 1.4075388e+00 -7.9680651e-02 
1.5333079e+00 1.3955814e+00 -8.3790749e-02 
1.5693612e+00 1.4317821e+00 -8.7366253e-02 
1.5516163e+00 1.4137126e+00 -9.6382067e-02 
1.5510978e+00 1.4134958e+00 -8.3333924e-02 
1.5805062e+00 1.4427402e+00 -9.8425232e-02 
1.5806957e+00 1.4431094e+00 -9.0794869e-02 
1.5281192e+00 1.3902472e+00 -8.8617183e-02 
1.5283004e+00 1.3906790e+00 -7.7906668e-02 
1.5306401e+00 1.3926806e+00 -9.3050689e-02 
1.5353919e+00 1.3974109e+00 -9.5254943e-02 
1.5294762e+00 1.3918906e+00 -7.6690271e-02 
1.5344235e+00 1.3968210e+00 -7.8791432e-02 
1.5234723e+00 1.3857019e+00 -8.3002500e-02 
1.5402709e+00 1.4023137e+00 -9.5564596e-02 
1.5393943e+00 1.4017230e+00 -8.3099805e-02 
1.5554926e+00 1.4175971e+00 -9.7088479e-02 
1.5687996e+00 1.4309529e+00 -9.8655075e-02 
1.5688307e+00 1.4311061e+00 -9.3442075e-02 
1.5549906e+00 1.4172533e+00 -9.0192936e-02 
1.5185355e+00 1.3808653e+00 -7.7336393e-02 
1.5182512e+00 1.3803326e+00 -8.7939776e-02 
1.5248475e+00 1.3868136e+00 -9.4645850e-02 
1.5309300e+00 1.3929240e+00 -9.5103718e-02 
1.5200092e+00 1.3819969e+00 -9.2427582e-02 
1.5802356e+00 1.4424247e+00 -1.0027908e-01 
1.5803200e+00 1.4425924e+00 -9.6738078e-02 
1.5235687e+00 1.3859184e+00 -7.7888295e-02 
1.5297878e+00 1.3920889e+00 -8.1670456e-02 
1.5185345e+00 1.3809016e+00 -7.5750150e-02 
1.5135796e+00 1.3757648e+00 -8.2210094e-02 
1.5349628e+00 1.3969663e+00 -9.5785081e-02 
1.5083256e+00 1.3703607e+00 -8.7258764e-02 
1.5085161e+00 1.3708078e+00 -7.6262332e-02 
1.5141132e+00 1.3760259e+00 -9.4024673e-02 
1.5338337e+00 1.3959939e+00 -8.8787876e-02 
1.5091857e+00 1.3711202e+00 -9.1792151e-02 
1.5191791e+00 1.3811183e+00 -9.4246775e-02 
1.5125242e+00 1.3748252e+00 -7.6970719e-02 
1.5074002e+00 1.3697190e+00 -7.4793361e-02 
1.5176779e+00 1.3799077e+00 -8.1436776e-02 
1.5036283e+00 1.3657697e+00 -8.1412770e-02 
1.5798457e+00 1.4419028e+00 -1.0582047e-01 
1.5634295e+00 1.4254045e+00 -1.0479479e-01 
1.4983410e+00 1.3603292e+00 -8.6573087e-02 
1.4985366e+00 1.3607846e+00 -7.5432464e-02 
1.5031831e+00 1.3650422e+00 -9.3390852e-02 
1.5083472e+00 1.3702338e+00 -9.3567379e-02 
1.5077319e+00 1.3699335e+00 -7.9958797e-02 
1.4981632e+00 1.3600444e+00 -9.1143690e-02 
1.5012841e+00 1.3635362e+00 -7.6038346e-02 
1.4936175e+00 1.3557154e+00 -8.0610849e-02 
1.5470133e+00 1.4089071e+00 -1.0376860e-01 
1.5113051e+00 1.3732013e+00 -9.3945123e-02 
1.4960674e+00 1.3583381e+00 -7.3820509e-02 
1.5219955e+00 1.3838993e+00 -9.6520796e-02 
1.5221971e+00 1.3841931e+00 -9.2631496e-02 
1.5119407e+00 1.3739955e+00 -8.7353744e-02 
1.4892085e+00 1.3514295e+00 -7.4111238e-02 
1.4882967e+00 1.3502392e+00 -8.5882202e-02 
1.4973162e+00 1.3591505e+00 -9.2874140e-02 
1.4920509e+00 1.3538562e+00 -9.2744045e-02 
1.5305985e+00 1.3924116e+00 -1.0274141e-01 
1.4869361e+00 1.3487635e+00 -9.0483055e-02 
1.4951901e+00 1.3573194e+00 -7.9726614e-02 
1.4898416e+00 1.3520453e+00 -7.5089946e-02 
1.4835472e+00 1.3456017e+00 -7.9804011e-02 
1.4845297e+00 1.3467519e+00 -7.2830729e-02 
1.5055908e+00 1.3674145e+00 -9.5509827e-02 
1.4872737e+00 1.3490571e+00 -9.2386566e-02 
1.4781917e+00 1.3400894e+00 -8.5187316e-02 
1.4786041e+00 1.3407822e+00 -7.3172368e-02 
1.4807103e+00 1.3424617e+00 -9.2083342e-02 
1.4848833e+00 1.3469845e+00 -7.8196160e-02 
1.5141875e+00 1.3759198e+00 -1.0171174e-01 
1.4916519e+00 1.3534468e+00 -9.3033746e-02 
1.4754974e+00 1.3372710e+00 -8.9808069e-02 
1.4734149e+00 1.3354270e+00 -7.8991994e-02 
1.4781913e+00 1.3403460e+00 -7.4127063e-02 
1.4892669e+00 1.3512146e+00 -8.5892357e-02 
1.4727803e+00 1.3349551e+00 -7.1823880e-02 
1.4680251e+00 1.3298783e+00 -8.4487244e-02 
1.4678317e+00 1.3299620e+00 -7.2407819e-02 
1.4746329e+00 1.3363620e+00 -9.1442540e-02 
1.4691548e+00 1.3308523e+00 -9.1408230e-02 
1.4977769e+00 1.3594298e+00 -1.0068138e-01 
1.4632211e+00 1.3251921e+00 -7.8175940e-02 
1.4718819e+00 1.3339102e+00 -7.7966116e-02 
1.4638405e+00 1.3255610e+00 -8.9118317e-02 
1.4663253e+00 1.3284322e+00 -7.3147036e-02 
1.4608140e+00 1.3229412e+00 -7.0800275e-02 
1.4577971e+00 1.3196065e+00 -8.3781965e-02 
1.4580121e+00 1.3200924e+00 -7.2061867e-02 
1.4642051e+00 1.3258830e+00 -9.0937786e-02 
1.4687746e+00 1.3304644e+00 -9.1579743e-02 
1.4573778e+00 1.3190219e+00 -9.0717196e-02 
1.4611908e+00 1.3231925e+00 -7.6379858e-02 
1.4529663e+00 1.3148961e+00 -7.7356152e-02 
1.4813738e+00 1.3429506e+00 -9.9649936e-02 
1.4657613e+00 1.3276008e+00 -8.4400639e-02 
1.4519594e+00 1.3136278e+00 -8.8413380e-02 
1.4542396e+00 1.3162981e+00 -7.2152875e-02 
1.4479823e+00 1.3100202e+00 -7.1425527e-02 
1.4475073e+00 1.3092754e+00 -8.3073683e-02 
1.4486241e+00 1.3107036e+00 -6.9757551e-02 
1.4510782e+00 1.3127028e+00 -8.9945413e-02 
1.4426483e+00 1.3045385e+00 -7.6530486e-02 
1.4453741e+00 1.3069662e+00 -9.0010516e-02 
1.4477042e+00 1.3096335e+00 -7.6155931e-02 
1.4398466e+00 1.3014635e+00 -8.7692745e-02 
1.4419279e+00 1.3039389e+00 -7.1139820e-02 
1.4564111e+00 1.3180076e+00 -9.2468552e-02 
1.4649791e+00 1.3264830e+00 -9.8617010e-02 
1.4371535e+00 1.2988784e+00 -8.2360245e-02 
1.4373783e+00 1.2993795e+00 -7.0348136e-02 
1.4362029e+00 1.2982367e+00 -6.8696037e-02 
1.4402421e+00 1.3018179e+00 -8.9423291e-02 
1.4450160e+00 1.3066033e+00 -9.0067901e-02 
1.4322667e+00 1.2941176e+00 -7.5701326e-02 
1.4331329e+00 1.2946737e+00 -8.9288540e-02 
1.4366057e+00 1.2985104e+00 -7.4510127e-02 
1.4413754e+00 1.3031105e+00 -8.2879461e-02 
1.4280102e+00 1.2899884e+00 -6.9077469e-02 
1.4362007e+00 1.2978970e+00 -8.3297141e-02 
1.4269806e+00 1.2886828e+00 -8.0916561e-02 
1.4274949e+00 1.2890606e+00 -8.6955860e-02 
1.4293780e+00 1.2913439e+00 -7.0111968e-02 
1.4485916e+00 1.3100224e+00 -9.7579993e-02 
1.4235430e+00 1.2855330e+00 -6.7617677e-02 
1.4218224e+00 1.2836362e+00 -7.4867435e-02 
1.4265946e+00 1.2881192e+00 -8.8380046e-02 
1.4206496e+00 1.2821389e+00 -8.8548481e-02 
1.4168450e+00 1.2787896e+00 -6.7988597e-02 
1.4162565e+00 1.2779011e+00 -8.0916151e-02 
1.4225980e+00 1.2844318e+00 -7.4291632e-02 
1.4148972e+00 1.2764131e+00 -8.6203642e-02 
1.4165854e+00 1.2785077e+00 -6.9064364e-02 
1.4113133e+00 1.2730905e+00 -7.4027747e-02 
1.4322137e+00 1.2935774e+00 -9.6541546e-02 
1.4106373e+00 1.2725846e+00 -6.6519290e-02 
1.4206610e+00 1.2821429e+00 -8.8848054e-02 
1.4139885e+00 1.2754626e+00 -8.7570310e-02 
1.4057096e+00 1.2673184e+00 -8.0187678e-02 
1.4079152e+00 1.2693554e+00 -8.7789103e-02 
1.4110651e+00 1.2728778e+00 -7.2583519e-02 
1.4054495e+00 1.2673570e+00 -6.7083746e-02 
1.4160485e+00 1.2776808e+00 -8.1326507e-02 
1.4020454e+00 1.2635127e+00 -8.5431866e-02 
1.4007359e+00 1.2624803e+00 -7.3182367e-02 
1.4035444e+00 1.2654253e+00 -6.8002693e-02 
1.4033760e+00 1.2648177e+00 -8.6681508e-02 
1.3974794e+00 1.2593876e+00 -6.5403245e-02 
1.3950968e+00 1.2566710e+00 -7.9452097e-02 
1.3953381e+00 1.2572002e+00 -6.6861629e-02 
1.4158539e+00 1.2771561e+00 -9.5501572e-02 
1.4073194e+00 1.2687180e+00 -8.9404903e-02 
1.3949249e+00 1.2563177e+00 -8.7010309e-02 
1.3915355e+00 1.2532300e+00 -7.3439807e-02 
1.3965085e+00 1.2582538e+00 -7.2373927e-02 
1.3900956e+00 1.2518102e+00 -7.2333269e-02 
1.3889349e+00 1.2503587e+00 -8.4636942e-02 
1.3902496e+00 1.2520907e+00 -6.6927075e-02 
1.3844196e+00 1.2459620e+00 -7.8712314e-02 
1.3846226e+00 1.2464536e+00 -6.6144213e-02 
1.3880041e+00 1.2493885e+00 -8.5882723e-02 
1.3840630e+00 1.2459364e+00 -6.4270087e-02 
1.3927227e+00 1.2540896e+00 -8.7608032e-02 
1.3922055e+00 1.2537103e+00 -8.1631914e-02 
1.3995014e+00 1.2607409e+00 -9.4454966e-02 
1.3816730e+00 1.2430218e+00 -8.6210683e-02 
1.3793902e+00 1.2410775e+00 -7.1483649e-02 
1.3830805e+00 1.2447871e+00 -7.1399078e-02 
1.3755586e+00 1.2369406e+00 -8.3824381e-02 
1.3750938e+00 1.2369173e+00 -6.4692006e-02 
1.3736817e+00 1.2351954e+00 -7.7965349e-02 
1.3766901e+00 1.2384990e+00 -6.5828279e-02 
1.3746183e+00 1.2359616e+00 -8.5012570e-02 
1.3703845e+00 1.2322255e+00 -6.3116133e-02 
1.3686264e+00 1.2302853e+00 -7.0629530e-02 
1.3681471e+00 1.2294581e+00 -8.5390277e-02 
1.3758473e+00 1.2373058e+00 -8.0438182e-02 
1.3747541e+00 1.2360768e+00 -8.5958064e-02 
1.3831731e+00 1.2443590e+00 -9.3406044e-02 
1.3693855e+00 1.2310580e+00 -7.0407890e-02 
1.3631333e+00 1.2249149e+00 -6.4206898e-02 
1.3627833e+00 1.2242849e+00 -7.6398060e-02 
1.3619049e+00 1.2232527e+00 -8.2994558e-02 
1.3628637e+00 1.2246432e+00 -6.4716704e-02 
1.3577920e+00 1.2194282e+00 -6.9767393e-02 
1.3628992e+00 1.2242173e+00 -8.4066197e-02 
1.3564311e+00 1.2182455e+00 -6.1945070e-02 
1.3543440e+00 1.2156209e+00 -8.4549375e-02 
1.3520082e+00 1.2134713e+00 -7.6463617e-02 
1.3522617e+00 1.2140268e+00 -6.3311920e-02 
1.3554180e+00 1.2170612e+00 -6.9404796e-02 
1.3602698e+00 1.2216799e+00 -7.9827897e-02 
1.3668710e+00 1.2280104e+00 -9.2356607e-02 
1.3479712e+00 1.2092867e+00 -8.2143210e-02 
1.3576241e+00 1.2188951e+00 -8.5279256e-02 
1.3468901e+00 1.2085106e+00 -6.8897054e-02 
1.3487595e+00 1.2105153e+00 -6.3587308e-02 
1.3484941e+00 1.2097832e+00 -8.3086915e-02 
1.3410681e+00 1.2025148e+00 -7.5702354e-02 
1.3413253e+00 1.2030805e+00 -6.2412743e-02 
1.3421971e+00 1.2039917e+00 -6.0752623e-02 
1.3402525e+00 1.2015010e+00 -8.3687387e-02 
1.3411691e+00 1.2027895e+00 -6.8388134e-02 
1.3359213e+00 1.1975316e+00 -6.8027563e-02 
1.3447042e+00 1.2060992e+00 -7.8208216e-02 
1.3505977e+00 1.2116983e+00 -9.1302827e-02 
1.3337435e+00 1.1950344e+00 -8.1270479e-02 
1.3343682e+00 1.1961077e+00 -6.2439576e-02 
1.3418183e+00 1.2030563e+00 -8.4386550e-02 
1.3300625e+00 1.1914942e+00 -7.4935414e-02 
1.3303251e+00 1.1920693e+00 -6.1510526e-02 
1.3335102e+00 1.1947758e+00 -8.2099587e-02 
1.3276708e+00 1.1894552e+00 -5.9539955e-02 
1.3248872e+00 1.1864861e+00 -6.7157030e-02 
1.3258618e+00 1.1870906e+00 -8.2802452e-02 
1.3266280e+00 1.1882324e+00 -6.7357518e-02 
1.3189931e+00 1.1804150e+00 -7.4165352e-02 
1.3192571e+00 1.1809915e+00 -6.0600739e-02 
1.3192117e+00 1.1804881e+00 -8.0377780e-02 
1.3343555e+00 1.1954256e+00 -9.0245090e-02 
1.3196803e+00 1.1814125e+00 -6.1273713e-02 
1.3263298e+00 1.1877141e+00 -7.6395229e-02 
1.3261399e+00 1.1873510e+00 -8.3525456e-02 
1.3137838e+00 1.1753780e+00 -6.6275656e-02 
1.3182858e+00 1.1795355e+00 -8.1091806e-02 
1.3128440e+00 1.1746268e+00 -5.8309969e-02 
1.3111658e+00 1.1723826e+00 -8.1891038e-02 
1.3139802e+00 1.1755524e+00 -6.7501746e-02 
1.3078475e+00 1.1692669e+00 -7.3389761e-02 
1.3081204e+00 1.1698588e+00 -5.9697796e-02 
1.3043706e+00 1.1656401e+00 -7.9457775e-02 
1.3181424e+00 1.1791891e+00 -8.9197055e-02 
1.3026129e+00 1.1642129e+00 -6.5403052e-02 
1.3046917e+00 1.1664239e+00 -6.0089838e-02 
1.3102490e+00 1.1714472e+00 -8.2448311e-02 
1.3086488e+00 1.1699905e+00 -7.6407544e-02 
1.3030266e+00 1.1642683e+00 -8.0085300e-02 
1.2966413e+00 1.1580642e+00 -7.2616465e-02 
1.2969118e+00 1.1586593e+00 -5.8787555e-02 
1.2977151e+00 1.1595032e+00 -5.7054061e-02 
1.2961562e+00 1.1573702e+00 -8.0954053e-02 
1.2988141e+00 1.1603686e+00 -6.7134514e-02 
1.2913706e+00 1.1529773e+00 -6.4521551e-02 
1.2892182e+00 1.1504866e+00 -7.8513898e-02 
1.2891279e+00 1.1507022e+00 -6.5722056e-02 
1.3019655e+00 1.1630050e+00 -8.8143110e-02 
1.2893922e+00 1.1511343e+00 -5.8887981e-02 
1.2945483e+00 1.1557473e+00 -8.1149563e-02 
1.2853644e+00 1.1467944e+00 -7.1825027e-02 
1.2856345e+00 1.1473888e+00 -5.7869080e-02 
1.2876388e+00 1.1488827e+00 -7.9090923e-02 
1.2925677e+00 1.1538943e+00 -7.5856633e-02 
1.2822676e+00 1.1440718e+00 -5.5783641e-02 
1.2800627e+00 1.1416789e+00 -6.3628107e-02 
1.2808214e+00 1.1420425e+00 -7.9993755e-02 
1.2831193e+00 1.1446844e+00 -6.6134892e-02 
1.2740140e+00 1.1354551e+00 -7.1038365e-02 
1.2742962e+00 1.1360655e+00 -5.6952775e-02 
1.2737223e+00 1.1350089e+00 -7.7540919e-02 
1.2858152e+00 1.1468537e+00 -8.7087996e-02 
1.2737703e+00 1.1355333e+00 -5.7669379e-02 
1.2787578e+00 1.1399642e+00 -8.0070384e-02 
1.2686826e+00 1.1303186e+00 -6.2741123e-02 
1.2720387e+00 1.1332989e+00 -7.8067727e-02 
1.2767981e+00 1.1381184e+00 -7.5520575e-02 
1.2658647e+00 1.1273897e+00 -6.7657821e-02 
1.2664927e+00 1.1283276e+00 -5.4483909e-02 
1.2651491e+00 1.1263907e+00 -7.9003334e-02 
1.2625970e+00 1.1240637e+00 -7.0248112e-02 
1.2669041e+00 1.1284840e+00 -6.5419652e-02 
1.2614762e+00 1.1232870e+00 -5.5347458e-02 
1.2578938e+00 1.1192065e+00 -7.6547667e-02 
1.2572279e+00 1.1188936e+00 -6.1845277e-02 
1.2697153e+00 1.1307709e+00 -8.6028129e-02 
1.2578264e+00 1.1196057e+00 -5.7264529e-02 
1.2624497e+00 1.1236893e+00 -7.8785196e-02 
1.2567533e+00 1.1180353e+00 -7.7159218e-02 
1.2615234e+00 1.1228337e+00 -7.5978383e-02 
1.2511451e+00 1.1126415e+00 -6.9402561e-02 
1.2514291e+00 1.1132555e+00 -5.5123959e-02 
1.2503830e+00 1.1122582e+00 -5.3167582e-02 
1.2492085e+00 1.1104864e+00 -7.7986039e-02 
1.2457855e+00 1.1074816e+00 -6.0956161e-02 
1.2475858e+00 1.1092052e+00 -6.4265981e-02 
1.2418456e+00 1.1032022e+00 -7.5535998e-02 
1.2536741e+00 1.1147627e+00 -8.4961697e-02 
1.2397414e+00 1.1012669e+00 -6.8527453e-02 
1.2400317e+00 1.1018875e+00 -5.4244705e-02 
1.2417550e+00 1.1036011e+00 -5.5062212e-02 
1.2455034e+00 1.1068511e+00 -7.4930802e-02 
1.2429081e+00 1.1041939e+00 -7.7563375e-02 
1.2379597e+00 1.0992978e+00 -7.5895913e-02 
1.2344209e+00 1.0961492e+00 -6.0078982e-02 
1.2343482e+00 1.0962732e+00 -5.1853135e-02 
1.2333037e+00 1.0946270e+00 -7.6985821e-02 
1.2327604e+00 1.0944974e+00 -6.0330965e-02 
1.2284232e+00 1.0899873e+00 -6.7652903e-02 
1.2280518e+00 1.0899597e+00 -5.2673411e-02 
1.2260629e+00 1.0874652e+00 -7.4536793e-02 
1.2376704e+00 1.0988048e+00 -8.3897419e-02 
1.2258426e+00 1.0877506e+00 -5.3685702e-02 
1.2231355e+00 1.0849059e+00 -5.9202153e-02 
1.2245448e+00 1.0859209e+00 -7.5110748e-02 
1.2283366e+00 1.0898433e+00 -6.9737606e-02 
1.2293893e+00 1.0906900e+00 -7.8032196e-02 
1.2231975e+00 1.0845793e+00 -7.4990980e-02 
1.2185524e+00 1.0805396e+00 -5.0575897e-02 
1.2171750e+00 1.0787849e+00 -6.6780403e-02 
1.2174684e+00 1.0794057e+00 -5.2513327e-02 
1.2176626e+00 1.0790324e+00 -7.5989418e-02 
1.2169875e+00 1.0787939e+00 -5.8807090e-02 
1.2119321e+00 1.0737530e+00 -5.8339354e-02 
1.2105427e+00 1.0720000e+00 -7.3539093e-02 
1.2217128e+00 1.0829049e+00 -8.2852587e-02 
1.2101767e+00 1.0721554e+00 -5.2343361e-02 
1.2075431e+00 1.0695475e+00 -5.0916150e-02 
1.2060224e+00 1.0676837e+00 -6.5910578e-02 
1.2090490e+00 1.0704774e+00 -7.4138753e-02 
1.2134554e+00 1.0748123e+00 -7.6987915e-02 
1.2135732e+00 1.0750303e+00 -7.2839223e-02 
1.2030014e+00 1.0650597e+00 -4.9324416e-02 
1.2079024e+00 1.0695581e+00 -6.5297633e-02 
1.2022783e+00 1.0637133e+00 -7.5001977e-02 
1.2008194e+00 1.0626880e+00 -5.7480324e-02 
1.2050641e+00 1.0665116e+00 -7.3775917e-02 
1.2014624e+00 1.0633488e+00 -5.7321582e-02 
1.1949445e+00 1.0566549e+00 -6.5052129e-02 
1.1952739e+00 1.0568044e+00 -7.2560266e-02 
1.2057773e+00 1.0670263e+00 -8.1776775e-02 
1.1947533e+00 1.0568141e+00 -5.1032417e-02 
1.1931717e+00 1.0552506e+00 -4.9643643e-02 
1.1938107e+00 1.0553122e+00 -7.3181115e-02 
1.1897712e+00 1.0517049e+00 -5.6634288e-02 
1.1975511e+00 1.0589641e+00 -7.5940914e-02 
1.1976634e+00 1.0591781e+00 -7.1795978e-02 
1.1876873e+00 1.0498352e+00 -4.8098288e-02 
1.1871481e+00 1.0486633e+00 -7.4025460e-02 
1.1839415e+00 1.0457218e+00 -6.4190239e-02 
1.1842364e+00 1.0463402e+00 -4.9985964e-02 
1.1894753e+00 1.0512552e+00 -6.2854387e-02 
1.1892135e+00 1.0507389e+00 -7.2696403e-02 
1.1861781e+00 1.0481596e+00 -5.5874866e-02 
1.1816361e+00 1.0436183e+00 -5.6005601e-02 
1.1802641e+00 1.0418817e+00 -7.1588375e-02 
1.1788125e+00 1.0408111e+00 -5.5798475e-02 
1.1898967e+00 1.0512129e+00 -8.0704547e-02 
1.1784710e+00 1.0406651e+00 -4.7614496e-02 
1.1795721e+00 1.0417258e+00 -4.9756080e-02 
1.1788294e+00 1.0404146e+00 -7.2236367e-02 
1.1817137e+00 1.0432141e+00 -7.4890837e-02 
1.1818190e+00 1.0434241e+00 -7.0755921e-02 
1.1730303e+00 1.0348877e+00 -6.3335881e-02 
1.1733111e+00 1.0354902e+00 -4.9166620e-02 
1.1725518e+00 1.0345045e+00 -5.9049688e-02 
1.1726055e+00 1.0348542e+00 -4.6909332e-02 
1.1725336e+00 1.0344403e+00 -6.1051976e-02 
1.1722821e+00 1.0338848e+00 -7.3052257e-02 
1.1736751e+00 1.0355603e+00 -6.1849162e-02 
1.1734278e+00 1.0350533e+00 -7.1617365e-02 
1.1711404e+00 1.0332272e+00 -5.4477330e-02 
1.1679409e+00 1.0300177e+00 -5.4960921e-02 
1.1675949e+00 1.0298681e+00 -4.6804633e-02 
1.1655059e+00 1.0272225e+00 -7.0610061e-02 
1.1635988e+00 1.0258375e+00 -4.8966840e-02 
1.1646166e+00 1.0268844e+00 -4.8503894e-02 
1.1740825e+00 1.0354950e+00 -7.9631329e-02 
1.1632166e+00 1.0253265e+00 -5.4687381e-02 
1.1622022e+00 1.0241350e+00 -6.2484160e-02 
1.1641095e+00 1.0257967e+00 -7.1317218e-02 
1.1659416e+00 1.0275537e+00 -7.3842235e-02 
1.1660409e+00 1.0277597e+00 -6.9717377e-02 
1.1571573e+00 1.0193176e+00 -5.4147821e-02 
1.1577691e+00 1.0201360e+00 -4.5743383e-02 
1.1576445e+00 1.0193592e+00 -7.2088577e-02 
1.1563317e+00 1.0185425e+00 -5.3083207e-02 
1.1579386e+00 1.0199337e+00 -6.0863566e-02 
1.1577039e+00 1.0194447e+00 -7.0554227e-02 
1.1514647e+00 1.0134852e+00 -6.1649494e-02 
1.1520203e+00 1.0142123e+00 -5.4456260e-02 
1.1517404e+00 1.0140922e+00 -4.7566410e-02 
1.1509888e+00 1.0128146e+00 -6.9660075e-02 
1.1498983e+00 1.0122839e+00 -4.7284734e-02 
1.1583387e+00 1.0198652e+00 -7.8554764e-02 
1.1496245e+00 1.0114211e+00 -7.0391729e-02 
1.1464536e+00 1.0087074e+00 -5.3330865e-02 
1.1461107e+00 1.0085601e+00 -4.5182932e-02 
1.1432879e+00 1.0054055e+00 -5.9679400e-02 
1.1432695e+00 1.0050966e+00 -7.1138248e-02 
1.1431530e+00 1.0056444e+00 -4.4606425e-02 
1.1502399e+00 1.0119714e+00 -7.2792023e-02 
1.1503340e+00 1.0121721e+00 -6.8676531e-02 
1.1417667e+00 1.0040460e+00 -5.3648129e-02 
1.1413420e+00 1.0035249e+00 -5.7919797e-02 
1.1407971e+00 1.0029161e+00 -6.0816351e-02 
1.1410769e+00 1.0035276e+00 -4.6773866e-02 
1.1417452e+00 1.0040917e+00 -5.1737927e-02 
1.1422607e+00 1.0043914e+00 -5.9862904e-02 
1.1420370e+00 1.0039119e+00 -6.9483064e-02 
1.1367190e+00 9.9866879e-01 -6.8711869e-02 
1.1358278e+00 9.9818718e-01 -5.2529793e-02 
1.1354896e+00 9.9804419e-01 -4.4396166e-02 
1.1354210e+00 9.9795109e-01 -4.6102464e-02 
1.1353716e+00 9.9729013e-01 -6.9499098e-02 
1.1426582e+00 1.0043114e+00 -7.7476107e-02 
1.1302127e+00 9.9243736e-01 -5.9991475e-02 
1.1304998e+00 9.9305403e-01 -4.5992203e-02 
1.1293842e+00 9.9169892e-01 -5.6254949e-02 
1.1291274e+00 9.9108791e-01 -7.0199534e-02 
1.1287637e+00 9.9139953e-01 -4.3479845e-02 
1.1345927e+00 9.9645990e-01 -7.1739800e-02 
1.1346825e+00 9.9665672e-01 -6.7635432e-02 
1.1252820e+00 9.8774773e-01 -5.1747985e-02 