# vtk DataFile Version 4.0
vtk output
ASCII
DATASET UNSTRUCTURED_GRID
POINTS 6166 float
-4.3633327e-01 9.6409470e-01 4.4200001e+01 
-4.3633261e-01 9.6409082e-01 4.4079685e+01 
-3.2145375e-01 9.1276109e-01 4.4200001e+01 
-3.8566181e-01 8.4097892e-01 4.4200001e+01 
-3.3069235e-01 9.1895354e-01 4.4019413e+01 
-3.8473952e-01 8.3919770e-01 4.4024357e+01 
-4.3633196e-01 9.6408689e-01 4.3958702e+01 
-2.1293370e-01 8.4677851e-01 4.4200001e+01 
-2.9042658e-01 7.3813015e-01 4.4200001e+01 
-2.1019450e-01 8.4669626e-01 4.4077393e+01 
-2.8909999e-01 7.3605996e-01 4.4073399e+01 
-3.2963324e-01 9.1929907e-01 4.3898094e+01 
-3.8679782e-01 8.4179753e-01 4.3889645e+01 
-2.0740938e-01 8.4661204e-01 4.3952713e+01 
-4.3633130e-01 9.6408290e-01 4.3837040e+01 
-1.1677200e-01 7.7521002e-01 4.4200001e+01 
-2.8775173e-01 7.3395580e-01 4.3944717e+01 
-1.9365783e-01 6.6203654e-01 4.4200001e+01 
-1.1309985e-01 7.7540898e-01 4.4012005e+01 
-1.9181472e-01 6.5888047e-01 4.4006447e+01 
-3.2856464e-01 9.1964108e-01 4.3776085e+01 
-3.8823184e-01 8.4352189e-01 4.3765770e+01 
-2.0457739e-01 8.4652513e-01 4.3825886e+01 
-2.8638119e-01 7.3181647e-01 4.3813885e+01 
-4.3633065e-01 9.6407896e-01 4.3714680e+01 
-1.0911675e-01 7.7426714e-01 4.3886200e+01 
-2.1001574e-02 6.8269837e-01 4.4200001e+01 
-1.8902887e-01 6.5566909e-01 4.3876659e+01 
-7.8887597e-02 5.9015810e-01 4.4200001e+01 
-3.2748649e-01 9.1997939e-01 4.3653378e+01 
-3.9889076e-01 8.5876143e-01 4.3651733e+01 
-2.0169757e-01 8.4643483e-01 4.3696846e+01 
-7.2496021e-03 6.7325598e-01 4.3947758e+01 
-1.0504345e-01 7.7307969e-01 4.3758209e+01 
-2.8498772e-01 7.2964084e-01 4.3680840e+01 
-6.3224643e-02 5.7783771e-01 4.3940754e+01 
3.5808440e-02 6.2679136e-01 4.4056572e+01 
-1.8616955e-01 6.5238589e-01 4.3744686e+01 
-4.3632996e-01 9.6407503e-01 4.3591618e+01 
-9.8678423e-03 5.4892725e-01 4.4055367e+01 
-1.8652271e-02 6.8798620e-01 4.3834026e+01 
-7.9845116e-02 5.8636194e-01 4.3823372e+01 
8.7777540e-02 5.7885915e-01 4.4200001e+01 
5.3622175e-02 5.1732427e-01 4.4200001e+01 
-3.2639861e-01 9.2031354e-01 4.3529953e+01 
-3.9894739e-01 8.5844576e-01 4.3528313e+01 
-1.9876897e-01 8.4634024e-01 4.3565521e+01 
-1.0087753e-01 7.7184403e-01 4.3627972e+01 
-2.8357074e-01 7.2742778e-01 4.3545506e+01 
-1.8323407e-01 6.4902818e-01 4.3610458e+01 
-4.3632931e-01 9.6407109e-01 4.3467831e+01 
3.1033519e-03 6.6751039e-01 4.3691772e+01 
-5.3600248e-02 5.6906003e-01 4.3676846e+01 
1.2436585e-01 5.5082864e-01 4.3886215e+01 
1.7079005e-01 5.1095647e-01 4.4054855e+01 
1.4951277e-01 4.6697062e-01 4.4053665e+01 
1.0028158e-01 4.8915190e-01 4.3877911e+01 
-4.0513036e-01 8.6722642e-01 4.3405304e+01 
-3.2530096e-01 9.2064321e-01 4.3405800e+01 
-9.6616447e-02 7.7055699e-01 4.3495411e+01 
-8.4563000e-03 6.8258613e-01 4.3574005e+01 
-1.9579062e-01 8.4624058e-01 4.3431831e+01 
2.1753120e-01 4.7335833e-01 4.4200001e+01 
2.0360756e-01 4.4289169e-01 4.4200001e+01 
-1.8021962e-01 6.4559317e-01 4.3473904e+01 
-7.0636064e-02 5.7773441e-01 4.3555408e+01 
-2.8212959e-01 7.2517604e-01 4.3407806e+01 
-4.3632865e-01 9.6406716e-01 4.3343307e+01 
1.3810426e-01 5.4143524e-01 4.3628246e+01 
-3.2419339e-01 9.2096806e-01 4.3280907e+01 
-3.9903235e-01 8.5775709e-01 4.3279266e+01 
-9.2257597e-02 7.6921552e-01 4.3360443e+01 
1.1508528e-01 4.7804743e-01 4.3612068e+01 
-1.9276154e-01 8.4613472e-01 4.3295704e+01 
1.4013666e-02 6.6131532e-01 4.3426643e+01 
-1.7712323e-01 6.4207786e-01 4.3334946e+01 
-2.8066361e-01 7.2288430e-01 4.3267666e+01 
-4.3382257e-02 5.5983055e-01 4.3403778e+01 
-4.3632799e-01 9.6406323e-01 4.3218033e+01 
3.7877345e-01 3.8273901e-01 4.4200001e+01 
3.9076596e-01 3.7443376e-01 4.3993755e+01 
-3.2307580e-01 9.2128778e-01 4.3155251e+01 
-3.9906058e-01 8.5738426e-01 4.3153610e+01 
-8.7798268e-02 7.6781619e-01 4.3222996e+01 
1.9689407e-02 6.5803534e-01 4.3290459e+01 
-6.0862999e-02 5.6866169e-01 4.3278019e+01 
-1.8968078e-01 8.4602165e-01 4.3157055e+01 
-1.7394182e-01 6.3847917e-01 4.3193501e+01 
-4.3632734e-01 9.6405929e-01 4.3091995e+01 
4.0275589e-01 3.6612594e-01 4.3787510e+01 
1.2304078e-01 5.5709994e-01 4.3330139e+01 
-2.7917209e-01 7.2055119e-01 4.3125000e+01 
2.5336364e-01 4.4907436e-01 4.3468094e+01 
2.3670304e-01 4.1684708e-01 4.3469433e+01 
1.3086085e-01 4.6634668e-01 4.3336948e+01 
-3.8351217e-01 8.3473074e-01 4.3036392e+01 
-3.2194808e-01 9.2160189e-01 4.3028820e+01 
2.5518833e-02 6.5462554e-01 4.3151749e+01 
-8.3235659e-02 7.6635528e-01 4.3082981e+01 
4.1474071e-01 3.5781288e-01 4.3581264e+01 
-1.8654740e-01 8.4590012e-01 4.3015797e+01 
-3.2522827e-02 5.5011308e-01 4.3120937e+01 
-1.7067213e-01 6.3479382e-01 4.3049488e+01 
-4.3632668e-01 9.6405542e-01 4.2965172e+01 
-2.7765438e-01 7.1817529e-01 4.2979721e+01 
2.6620242e-01 4.4011977e-01 4.3261948e+01 
1.3584816e-02 6.7044950e-01 4.3025066e+01 
-3.2081014e-01 9.2191011e-01 4.2901604e+01 
-3.8160574e-01 8.3169121e-01 4.2902863e+01 
-7.8566879e-02 7.6482886e-01 4.2940315e+01 
-5.0480481e-02 5.5910730e-01 4.2990566e+01 
4.2671782e-01 3.4949207e-01 4.3375019e+01 
1.6821145e-01 5.2049083e-01 4.3083881e+01 
-1.8336046e-01 8.4576881e-01 4.2871841e+01 
-4.3632606e-01 9.6405160e-01 4.2837555e+01 
-1.6731077e-01 6.3101834e-01 4.2902817e+01 
1.4768846e-01 4.5400122e-01 4.3051926e+01 
-2.7610970e-01 7.1575516e-01 4.2831745e+01 
-3.1966189e-01 9.2221189e-01 4.2773579e+01 
-3.8560396e-01 8.3684862e-01 4.2767078e+01 
3.7660085e-02 6.4738947e-01 4.2866421e+01 
-7.3788933e-02 7.6323271e-01 4.2794899e+01 
4.3868470e-01 3.4116083e-01 4.3168777e+01 
-4.3632543e-01 9.6404779e-01 4.2709122e+01 
-2.0968946e-02 5.3986710e-01 4.2827656e+01 
-1.8011902e-01 8.4562629e-01 4.2725094e+01 
-1.6385415e-01 6.2714905e-01 4.2753403e+01 
-2.7453732e-01 7.1328926e-01 4.2680973e+01 
-3.1850323e-01 9.2250693e-01 4.2644733e+01 
-3.9907700e-01 8.5570478e-01 4.2643101e+01 
2.5504474e-02 6.6361672e-01 4.2734810e+01 
1.8471870e-01 5.0880390e-01 4.2796177e+01 
-6.8898737e-02 7.6156229e-01 4.2646645e+01 
-3.9438177e-02 5.4903054e-01 4.2692345e+01 
-4.3632481e-01 9.6404403e-01 4.2579861e+01 
4.5063871e-01 3.3281663e-01 4.2962532e+01 
1.6565691e-01 4.4095638e-01 4.2756321e+01 
-1.7682223e-01 8.4547096e-01 4.2575459e+01 
-1.6029853e-01 6.2318206e-01 4.2601143e+01 
-4.0415615e-01 8.6278629e-01 4.2516582e+01 
-3.1733403e-01 9.2279470e-01 4.2515053e+01 
-2.7293649e-01 7.1077597e-01 4.2527313e+01 
5.0482783e-02 6.3954860e-01 4.2569923e+01 
-4.3632418e-01 9.6404034e-01 4.2449757e+01 
-6.3893095e-02 7.5981271e-01 4.2495445e+01 
-8.6617703e-03 5.2904755e-01 4.2523201e+01 
-1.7346917e-01 8.4530097e-01 4.2422829e+01 
-1.5663996e-01 6.1911333e-01 4.2445942e+01 
3.0435190e-01 4.1341871e-01 4.2643494e+01 
4.6257737e-01 3.2445681e-01 4.2756287e+01 
-3.1615424e-01 9.2307472e-01 4.2384518e+01 
-3.9902648e-01 8.5475212e-01 4.2382885e+01 
-2.7130640e-01 7.0821363e-01 4.2370659e+01 
3.8079392e-02 6.5619886e-01 4.2433029e+01 
2.0230262e-01 4.9620378e-01 4.2497147e+01 
-4.3632355e-01 9.6403670e-01 4.2318787e+01 
-5.8768708e-02 7.5797862e-01 4.2341198e+01 
-2.7680276e-02 5.3838593e-01 4.2382599e+01 
1.8486446e-01 4.2715022e-01 4.2449394e+01 
-3.8436696e-01 8.3356136e-01 4.2264896e+01 
8.9545198e-02 5.3233254e-01 4.2382050e+01 
-3.3225983e-01 9.3122375e-01 4.2255634e+01 
-1.7005907e-01 8.4511453e-01 4.2267101e+01 
-1.5287429e-01 6.1493850e-01 4.2287693e+01 
4.7449806e-01 3.1607881e-01 4.2550037e+01 
-2.6964626e-01 7.0560038e-01 4.2210907e+01 
-4.3632296e-01 9.6403313e-01 4.2186939e+01 
6.4036883e-02 6.3103610e-01 4.2261456e+01 
-5.3522192e-02 7.5605446e-01 4.2183796e+01 
-3.7873057e-01 8.2541841e-01 4.2124020e+01 
-3.1376252e-01 9.2360973e-01 4.2120819e+01 
4.4639236e-03 5.1760370e-01 4.2206776e+01 
-1.6659111e-01 8.4490943e-01 4.2108162e+01 
-1.4899719e-01 6.1065292e-01 4.2126286e+01 
-4.3632239e-01 9.6402961e-01 4.2054195e+01 
4.8639825e-01 3.0768004e-01 4.2343792e+01 
-2.6795524e-01 7.0293444e-01 4.2047943e+01 
2.4746621e-01 4.6040925e-01 4.2191032e+01 
7.1105182e-02 6.2650448e-01 4.2102463e+01 
-3.1255043e-01 9.2386365e-01 4.1987617e+01 
-4.8150036e-02 7.5403398e-01 4.2023121e+01 
-1.5144684e-02 5.2712250e-01 4.2060505e+01 
-3.7995064e-01 8.2661813e-01 4.1980038e+01 
2.0541981e-01 4.1251117e-01 4.2130333e+01 
-1.6306458e-01 8.4468329e-01 4.1945896e+01 
-4.3632182e-01 9.6402621e-01 4.1920536e+01 
-1.4500406e-01 6.0625184e-01 4.1961609e+01 
1.3375351e-01 5.6370503e-01 4.1969833e+01 
-2.6623246e-01 7.0021385e-01 4.1881653e+01 
-3.1132740e-01 9.2410773e-01 4.1853493e+01 
-3.9880505e-01 8.5261923e-01 4.1851868e+01 
4.9827534e-01 2.9925787e-01 4.2137547e+01 
3.4194937e-01 3.8685825e-01 4.2025021e+01 
-4.2648647e-02 7.5191063e-01 4.1859051e+01 
-2.5401810e-01 7.9503769e-01 4.1808533e+01 
1.8480448e-02 5.0547802e-01 4.1877510e+01 
-4.3632126e-01 9.6402287e-01 4.1785946e+01 
-1.5947884e-01 8.4443361e-01 4.1780174e+01 
-1.4089009e-01 6.0172999e-01 4.1793541e+01 
-3.1009343e-01 9.2434150e-01 4.1718426e+01 
-4.0306881e-01 8.5845691e-01 4.1716179e+01 
8.5861288e-02 6.1683756e-01 4.1774368e+01 
-2.6447710e-01 6.9743657e-01 4.1711910e+01 
3.0427080e-01 4.1638452e-01 4.1839512e+01 
2.6751360e-01 3.7833902e-01 4.1830902e+01 
5.1012677e-01 2.9080975e-01 4.1931297e+01 
-3.7014309e-02 7.4967718e-01 4.1691463e+01 
-4.3632072e-01 9.6401966e-01 4.1650398e+01 
2.5847588e-02 4.9913955e-01 4.1707767e+01 
-1.5583332e-01 8.4415752e-01 4.1610870e+01 
-3.8322043e-01 8.2981020e-01 4.1595791e+01 
-3.0884841e-01 9.2456430e-01 4.1582397e+01 
-1.3665022e-01 5.9708190e-01 4.1621960e+01 
9.3565010e-02 6.1167872e-01 4.1605015e+01 
-2.6268822e-01 6.9460052e-01 4.1538593e+01 
-4.3632022e-01 9.6401656e-01 4.1513885e+01 
-3.1243213e-02 7.4732590e-01 4.1520226e+01 
2.7603787e-01 3.7115356e-01 4.1624012e+01 
2.8505871e-01 4.3281260e-01 4.1611507e+01 
5.2195001e-01 2.8233302e-01 4.1725052e+01 
3.3468332e-02 4.9260557e-01 4.1534447e+01 
-3.9853087e-01 8.5081697e-01 4.1443768e+01 
-3.2560509e-01 9.3245691e-01 4.1443577e+01 
-1.5212752e-01 8.4385180e-01 4.1437847e+01 
-1.3227913e-01 5.9230179e-01 4.1446728e+01 
-4.3631971e-01 9.6401358e-01 4.1376381e+01 
[...]
POINT_DATA 6166
FIELD FieldData 5
DISPLACEMENT 3 6166  float
1.9670792e+00 1.7970675e+00 -1.3315327e-01 
1.9555290e+00 1.7854391e+00 -1.3203138e-01 
1.9667950e+00 1.7967917e+00 -1.3922291e-01 
1.9674385e+00 1.7974173e+00 -1.2612143e-01 
1.9494718e+00 1.7793508e+00 -1.3725081e-01 
1.9505812e+00 1.7804457e+00 -1.2440056e-01 
1.9439148e+00 1.7737463e+00 -1.3090320e-01 
1.9666107e+00 1.7966132e+00 -1.4326635e-01 
1.9674937e+00 1.7974715e+00 -1.2532686e-01 
1.9548284e+00 1.7847515e+00 -1.4237849e-01 
1.9553437e+00 1.7852392e+00 -1.2407402e-01 
1.9378186e+00 1.7676189e+00 -1.3625483e-01 
1.9376462e+00 1.7674232e+00 -1.2319849e-01 
1.9428465e+00 1.7726889e+00 -1.4147539e-01 
1.9322354e+00 1.7619878e+00 -1.2976864e-01 
1.9665107e+00 1.7965165e+00 -1.4558344e-01 
1.9429942e+00 1.7728060e+00 -1.2280069e-01 
1.9674126e+00 1.7973933e+00 -1.2726490e-01 
1.9484456e+00 1.7783295e+00 -1.4420275e-01 
1.9488385e+00 1.7786931e+00 -1.2533268e-01 
1.9260998e+00 1.7558210e+00 -1.3525289e-01 
1.9257529e+00 1.7554494e+00 -1.2207290e-01 
1.9306589e+00 1.7604191e+00 -1.4055644e-01 
1.9304390e+00 1.7601656e+00 -1.2150634e-01 
1.9204898e+00 1.7501627e+00 -1.2862764e-01 
1.9363554e+00 1.7661577e+00 -1.4330192e-01 
1.9665135e+00 1.7965198e+00 -1.4583910e-01 
1.9363812e+00 1.7661515e+00 -1.2408014e-01 
1.9672278e+00 1.7972144e+00 -1.3133857e-01 
1.9143140e+00 1.7439557e+00 -1.3424481e-01 
1.9147822e+00 1.7444052e+00 -1.2145947e-01 
1.9182589e+00 1.7479358e+00 -1.3962096e-01 
1.9422803e+00 1.7721229e+00 -1.4389558e-01 
1.9240559e+00 1.7537754e+00 -1.4238493e-01 
1.9176712e+00 1.7473116e+00 -1.2019046e-01 
1.9423273e+00 1.7721456e+00 -1.2923536e-01 
1.9527512e+00 1.7826642e+00 -1.4455414e-01 
1.9237148e+00 1.7533995e+00 -1.2280781e-01 
1.9086769e+00 1.7382700e+00 -1.2748018e-01 
1.9532220e+00 1.7831182e+00 -1.3263282e-01 
1.9313443e+00 1.7611132e+00 -1.4316389e-01 
1.9310942e+00 1.7608354e+00 -1.2736933e-01 
1.9665107e+00 1.7965177e+00 -1.4624910e-01 
1.9669656e+00 1.7969601e+00 -1.3702308e-01 
1.9024605e+00 1.7320226e+00 -1.3323069e-01 
1.9029367e+00 1.7324800e+00 -1.2027375e-01 
1.9056400e+00 1.7352322e+00 -1.3866833e-01 
1.9115407e+00 1.7411761e+00 -1.4145100e-01 
1.9046847e+00 1.7342372e+00 -1.1885224e-01 
1.9108323e+00 1.7404302e+00 -1.2151473e-01 
1.8967953e+00 1.7263089e+00 -1.2632577e-01 
1.9176863e+00 1.7473630e+00 -1.4194776e-01 
1.9169898e+00 1.7466372e+00 -1.2685175e-01 
1.9363528e+00 1.7661564e+00 -1.4412804e-01 
1.9525197e+00 1.7824342e+00 -1.4630456e-01 
1.9527161e+00 1.7826214e+00 -1.3999979e-01 
1.9359645e+00 1.7657518e+00 -1.3577801e-01 
1.8911171e+00 1.7205817e+00 -1.1938301e-01 
1.8905377e+00 1.7200202e+00 -1.3220984e-01 
1.8988032e+00 1.7283530e+00 -1.4049944e-01 
1.9063628e+00 1.7359632e+00 -1.4119658e-01 
1.8927954e+00 1.7223016e+00 -1.3769782e-01 
1.9664187e+00 1.7964293e+00 -1.4851217e-01 
1.9666301e+00 1.7966349e+00 -1.4423096e-01 
1.8977275e+00 1.7272373e+00 -1.2020107e-01 
1.9053701e+00 1.7349381e+00 -1.2492341e-01 
1.8914725e+00 1.7209364e+00 -1.1749179e-01 
1.8848447e+00 1.7142783e+00 -1.2516518e-01 
1.9115698e+00 1.7412063e+00 -1.4213434e-01 
1.8785453e+00 1.7079486e+00 -1.3118340e-01 
1.8790386e+00 1.7084223e+00 -1.1788068e-01 
1.8858364e+00 1.7152995e+00 -1.3952944e-01 
1.9104284e+00 1.7400438e+00 -1.3364865e-01 
1.8797181e+00 1.7091377e+00 -1.3670851e-01 
1.8922169e+00 1.7217221e+00 -1.3992460e-01 
1.8843935e+00 1.7138141e+00 -1.1886609e-01 
1.8780276e+00 1.7074015e+00 -1.1610734e-01 
1.8907756e+00 1.7202474e+00 -1.2439831e-01 
1.8728234e+00 1.7021773e+00 -1.2399751e-01 
1.9661093e+00 1.7961293e+00 -1.5523660e-01 
1.9462937e+00 1.7761792e+00 -1.5366255e-01 
1.8664818e+00 1.6958048e+00 -1.3015024e-01 
1.8669841e+00 1.6962875e+00 -1.1667303e-01 
1.8726330e+00 1.7020088e+00 -1.3854016e-01 
1.8791368e+00 1.7085547e+00 -1.3888244e-01 
1.8787454e+00 1.7081357e+00 -1.2240414e-01 
1.8664005e+00 1.6957326e+00 -1.3569941e-01 
1.8708233e+00 1.7001538e+00 -1.1750931e-01 
1.8607303e+00 1.6900047e+00 -1.2282309e-01 
1.9264783e+00 1.7562296e+00 -1.5208791e-01 
1.8829508e+00 1.7123941e+00 -1.3942181e-01 
1.8643429e+00 1.6936266e+00 -1.1469939e-01 
1.8961076e+00 1.7256430e+00 -1.4278223e-01 
1.8964683e+00 1.7259984e+00 -1.3808149e-01 
1.8840036e+00 1.7134420e+00 -1.3146919e-01 
1.8557754e+00 1.6850042e+00 -1.1488803e-01 
1.8543463e+00 1.6835902e+00 -1.2910958e-01 
1.8658167e+00 1.6951470e+00 -1.3781965e-01 
1.8591857e+00 1.6884736e+00 -1.3753115e-01 
1.9066641e+00 1.7362820e+00 -1.5051210e-01 
1.8528354e+00 1.6820792e+00 -1.3467145e-01 
1.8636299e+00 1.6929226e+00 -1.2187215e-01 
1.8570085e+00 1.6862490e+00 -1.1612900e-01 
1.8485651e+00 1.6777601e+00 -1.2164150e-01 
1.8504107e+00 1.6796031e+00 -1.1326683e-01 
1.8763064e+00 1.7057090e+00 -1.4122635e-01 
1.8536432e+00 1.6828939e+00 -1.3702188e-01 
1.8421373e+00 1.6713033e+00 -1.2806277e-01 
1.8429729e+00 1.6721189e+00 -1.1353631e-01 
1.8454864e+00 1.6746857e+00 -1.3650118e-01 
1.8511634e+00 1.6803733e+00 -1.1980713e-01 
1.8868532e+00 1.7163365e+00 -1.4893311e-01 
1.8592879e+00 1.6885757e+00 -1.3792689e-01 
1.8390146e+00 1.6681696e+00 -1.3362196e-01 
1.8363254e+00 1.6654420e+00 -1.2045243e-01 
1.8429427e+00 1.6720921e+00 -1.1472695e-01 
1.8566357e+00 1.6858943e+00 -1.2924123e-01 
1.8362226e+00 1.6653244e+00 -1.1180928e-01 
1.8298538e+00 1.6589420e+00 -1.2700869e-01 
1.8299459e+00 1.6590086e+00 -1.1239062e-01 
1.8384259e+00 1.6675788e+00 -1.3562700e-01 
1.8315277e+00 1.6606377e+00 -1.3544944e-01 
1.8670436e+00 1.6963943e+00 -1.4735356e-01 
1.8240111e+00 1.6530507e+00 -1.1925732e-01 
1.8354933e+00 1.6646048e+00 -1.1926858e-01 
1.8249304e+00 1.6539967e+00 -1.3255021e-01 
1.8286164e+00 1.6576755e+00 -1.1329979e-01 
1.8217723e+00 1.6507831e+00 -1.1032700e-01 
1.8174963e+00 1.6465074e+00 -1.2594707e-01 
1.8180338e+00 1.6470230e+00 -1.1176863e-01 
1.8257858e+00 1.6548580e+00 -1.3480069e-01 
1.8316722e+00 1.6607819e+00 -1.3570400e-01 
1.8173013e+00 1.6463223e+00 -1.3437414e-01 
1.8225620e+00 1.6515905e+00 -1.1712821e-01 
1.8116231e+00 1.6405857e+00 -1.1805646e-01 
1.8472421e+00 1.6764643e+00 -1.4577334e-01 
1.8282635e+00 1.6573393e+00 -1.2695988e-01 
1.8105750e+00 1.6395534e+00 -1.3145572e-01 
1.8140246e+00 1.6429924e+00 -1.1185109e-01 
1.8058984e+00 1.6348146e+00 -1.1079303e-01 
1.8050638e+00 1.6340007e+00 -1.2488054e-01 
1.8070519e+00 1.6359708e+00 -1.0881725e-01 
1.8099830e+00 1.6389569e+00 -1.3333787e-01 
1.7991587e+00 1.6280457e+00 -1.1684732e-01 
1.8028009e+00 1.6317338e+00 -1.3327536e-01 
1.8063060e+00 1.6352366e+00 -1.1658750e-01 
1.7959398e+00 1.6248301e+00 -1.3033763e-01 
1.7991595e+00 1.6280364e+00 -1.1037523e-01 
1.8169419e+00 1.6459624e+00 -1.3655056e-01 
1.8274502e+00 1.6565474e+00 -1.4419173e-01 
1.7925539e+00 1.6214142e+00 -1.2380668e-01 
1.7931091e+00 1.6219463e+00 -1.0927472e-01 
1.7920518e+00 1.6208808e+00 -1.0728008e-01 
1.7968479e+00 1.6257435e+00 -1.3248222e-01 
1.8029925e+00 1.6319250e+00 -1.3339385e-01 
1.7866170e+00 1.6154293e+00 -1.1563270e-01 
1.7880136e+00 1.6168587e+00 -1.3215350e-01 
1.7928818e+00 1.6217306e+00 -1.1436702e-01 
1.7988273e+00 1.6277238e+00 -1.2462562e-01 
1.7818469e+00 1.6106163e+00 -1.0755000e-01 
1.7923175e+00 1.6211764e+00 -1.2500502e-01 
1.7802516e+00 1.6090382e+00 -1.2185019e-01 
1.7810152e+00 1.6098180e+00 -1.2919509e-01 
1.7840067e+00 1.6127952e+00 -1.0887655e-01 
1.8076668e+00 1.6366385e+00 -1.4260487e-01 
1.7767630e+00 1.6055038e+00 -1.0571770e-01 
1.7739996e+00 1.6027395e+00 -1.1441118e-01 
1.7804182e+00 1.6092162e+00 -1.3094772e-01 
1.7729337e+00 1.6016905e+00 -1.3100491e-01 
1.7683787e+00 1.5970726e+00 -1.0600647e-01 
1.7673050e+00 1.5960189e+00 -1.2163463e-01 
1.7759968e+00 1.6047494e+00 -1.1382268e-01 
1.7657934e+00 1.5945094e+00 -1.2802917e-01 
1.7685604e+00 1.5972617e+00 -1.0734915e-01 
1.7613034e+00 1.5899714e+00 -1.1318137e-01 
1.7878939e+00 1.6167479e+00 -1.4101741e-01 
1.7611769e+00 1.5898304e+00 -1.0412635e-01 
1.7736419e+00 1.6024032e+00 -1.3143072e-01 
1.7651954e+00 1.5939044e+00 -1.2971286e-01 
1.7545612e+00 1.5832070e+00 -1.2053875e-01 
1.7575501e+00 1.5862207e+00 -1.2982820e-01 
1.7620468e+00 1.5907202e+00 -1.1151811e-01 
1.7546082e+00 1.5832274e+00 -1.0467941e-01 
1.7682543e+00 1.5969725e+00 -1.2223454e-01 
1.7502643e+00 1.5788946e+00 -1.2683485e-01 
1.7485249e+00 1.5771252e+00 -1.1194338e-01 
1.7528136e+00 1.5814301e+00 -1.0579973e-01 
1.7525207e+00 1.5811614e+00 -1.2843506e-01 
1.7452857e+00 1.5738556e+00 -1.0250842e-01 
1.7417376e+00 1.5703169e+00 -1.1943343e-01 
1.7423244e+00 1.5708798e+00 -1.0420062e-01 
1.7681422e+00 1.5968848e+00 -1.3942917e-01 
1.7576773e+00 1.5863506e+00 -1.3185178e-01 
1.7418569e+00 1.5704432e+00 -1.2862314e-01 
1.7377952e+00 1.5663422e+00 -1.1210475e-01 
1.7444985e+00 1.5730802e+00 -1.1097395e-01 
1.7356700e+00 1.5642064e+00 -1.1070002e-01 
1.7344218e+00 1.5629721e+00 -1.2560768e-01 
1.7367593e+00 1.5652927e+00 -1.0422848e-01 
1.7288359e+00 1.5573518e+00 -1.1832184e-01 
1.7293622e+00 1.5578562e+00 -1.0311360e-01 
1.7338170e+00 1.5623587e+00 -1.2714610e-01 
1.7290814e+00 1.5575726e+00 -1.0086471e-01 
1.7399755e+00 1.5685518e+00 -1.2937379e-01 
1.7394999e+00 1.5680659e+00 -1.2212996e-01 
1.7483988e+00 1.5770286e+00 -1.3783269e-01 
1.7258474e+00 1.5543524e+00 -1.2738794e-01 
1.7227356e+00 1.5512115e+00 -1.0945453e-01 
1.7282853e+00 1.5567877e+00 -1.0952237e-01 
1.7182578e+00 1.5467292e+00 -1.2435418e-01 
1.7179227e+00 1.5463628e+00 -1.0116736e-01 
1.7158602e+00 1.5443162e+00 -1.1720066e-01 
1.7203850e+00 1.5488433e+00 -1.0262405e-01 
1.7176514e+00 1.5461136e+00 -1.2582324e-01 
1.7125593e+00 1.5409741e+00 -9.9190645e-02 
1.7097299e+00 1.5381434e+00 -1.0820273e-01 
1.7095060e+00 1.5379366e+00 -1.2612255e-01 
1.7197462e+00 1.5482157e+00 -1.2035489e-01 
1.7182240e+00 1.5466917e+00 -1.2700912e-01 
1.7286822e+00 1.5572101e+00 -1.3623497e-01 
1.7117492e+00 1.5401770e+00 -1.0804655e-01 
1.7034161e+00 1.5317885e+00 -1.0033413e-01 
1.7026802e+00 1.5310725e+00 -1.1508063e-01 
1.7017574e+00 1.5301589e+00 -1.2307438e-01 
1.7036870e+00 1.5320736e+00 -1.0099888e-01 
1.6966386e+00 1.5249968e+00 -1.0693996e-01 
1.7035716e+00 1.5319717e+00 -1.2444849e-01 
1.6957043e+00 1.5240494e+00 -9.7490542e-02 
1.6928289e+00 1.5211891e+00 -1.2482717e-01 
1.6896682e+00 1.5180128e+00 -1.1494535e-01 
1.6902807e+00 1.5186042e+00 -9.9030577e-02 
1.6948826e+00 1.5232418e+00 -1.0655084e-01 
1.7009423e+00 1.5293304e+00 -1.1930438e-01 
1.7089961e+00 1.5374305e+00 -1.3463715e-01 
1.6849178e+00 1.5132508e+00 -1.2176351e-01 
1.6975861e+00 1.5259655e+00 -1.2584867e-01 
1.6834650e+00 1.5117760e+00 -1.0566636e-01 
1.6866524e+00 1.5149735e+00 -9.9346809e-02 
1.6862137e+00 1.5145456e+00 -1.2297752e-01 
1.6764462e+00 1.5047457e+00 -1.1380345e-01 
1.6770661e+00 1.5053487e+00 -9.7720943e-02 
1.6785090e+00 1.5067916e+00 -9.5759250e-02 
1.6758026e+00 1.5040985e+00 -1.2350088e-01 
1.6776752e+00 1.5059729e+00 -1.0503340e-01 
1.6702098e+00 1.4984800e+00 -1.0439260e-01 
1.6821345e+00 1.5104513e+00 -1.1702908e-01 
1.6893435e+00 1.5176940e+00 -1.3303511e-01 
1.6677217e+00 1.4959953e+00 -1.2042121e-01 
1.6692698e+00 1.4975339e+00 -9.7667091e-02 
1.6785108e+00 1.5068184e+00 -1.2445309e-01 
1.6631442e+00 1.4914004e+00 -1.1265368e-01 
1.6637733e+00 1.4920137e+00 -9.6406728e-02 
1.6681215e+00 1.4963909e+00 -1.2148277e-01 
1.6609594e+00 1.4891903e+00 -9.3997769e-02 
1.6568744e+00 1.4851030e+00 -1.0311634e-01 
1.6584134e+00 1.4866551e+00 -1.2214132e-01 
1.6601132e+00 1.4883574e+00 -1.0349371e-01 
1.6497644e+00 1.4779831e+00 -1.1149911e-01 
1.6503980e+00 1.4785974e+00 -9.5082171e-02 
1.6501570e+00 1.4783823e+00 -1.1904904e-01 
1.6697272e+00 1.4980035e+00 -1.3142987e-01 
1.6515274e+00 1.4797449e+00 -9.5959775e-02 
1.6599333e+00 1.4881779e+00 -1.1446395e-01 
1.6595892e+00 1.4878337e+00 -1.2309867e-01 
1.6434551e+00 1.4716494e+00 -1.0182601e-01 
1.6497326e+00 1.4779483e+00 -1.1995827e-01 
1.6430449e+00 1.4712344e+00 -9.2209518e-02 
1.6406540e+00 1.4688500e+00 -1.2074444e-01 
1.6448635e+00 1.4730694e+00 -1.0341846e-01 
1.6362922e+00 1.4644821e+00 -1.1033674e-01 
1.6369387e+00 1.4651139e+00 -9.3764558e-02 
1.6322167e+00 1.4604023e+00 -1.1763856e-01 
1.6501434e+00 1.4783547e+00 -1.2983723e-01 
1.6299528e+00 1.4581262e+00 -1.0054480e-01 
1.6334201e+00 1.4615990e+00 -9.4224952e-02 
1.6403898e+00 1.4685817e+00 -1.2147744e-01 
1.6385950e+00 1.4667829e+00 -1.1413019e-01 
1.6312728e+00 1.4594444e+00 -1.1843323e-01 
1.6227449e+00 1.4509135e+00 -1.0917582e-01 
1.6233917e+00 1.4515487e+00 -9.2436664e-02 
1.6247635e+00 1.4529192e+00 -9.0384483e-02 
1.6225141e+00 1.4506748e+00 -1.1931092e-01 
1.6265594e+00 1.4547290e+00 -1.0267345e-01 
1.6163633e+00 1.4445163e+00 -9.9251904e-02 
1.6138983e+00 1.4420509e+00 -1.1619344e-01 
1.6140444e+00 1.4421927e+00 -1.0069752e-01 
1.6306018e+00 1.4587675e+00 -1.2823999e-01 
1.6149352e+00 1.4430867e+00 -9.2462614e-02 
1.6213975e+00 1.4495474e+00 -1.1958889e-01 
1.6091119e+00 1.4372629e+00 -1.0799243e-01 
1.6097604e+00 1.4378963e+00 -9.1097929e-02 
1.6126521e+00 1.4407926e+00 -1.1692066e-01 
1.6191782e+00 1.4473269e+00 -1.1314414e-01 
1.6060948e+00 1.4342293e+00 -8.8535421e-02 
1.6026936e+00 1.4308292e+00 -9.7943619e-02 
1.6039798e+00 1.4321163e+00 -1.1784312e-01 
1.6076010e+00 1.4357493e+00 -1.0115030e-01 
1.5953885e+00 1.4235272e+00 -1.0681336e-01 
1.5960541e+00 1.4241788e+00 -8.9760706e-02 
1.5951632e+00 1.4233049e+00 -1.1470724e-01 
1.6110916e+00 1.4392197e+00 -1.2664221e-01 
1.5960585e+00 1.4241960e+00 -9.0673812e-02 
1.6023169e+00 1.4304395e+00 -1.1796773e-01 
1.5889349e+00 1.4170667e+00 -9.6641682e-02 
1.5937887e+00 1.4219141e+00 -1.1537122e-01 
1.6001384e+00 1.4282651e+00 -1.1242530e-01 
1.5858409e+00 1.4139802e+00 -1.0257796e-01 
1.5870286e+00 1.4151586e+00 -8.6645059e-02 
1.5850354e+00 1.4131632e+00 -1.1633305e-01 
1.5815834e+00 1.4097266e+00 -1.0562865e-01 
1.5880181e+00 1.4161586e+00 -9.9961601e-02 
1.5806214e+00 1.4087467e+00 -8.7563604e-02 
1.5760233e+00 1.4041629e+00 -1.1319050e-01 
1.5750855e+00 1.4032239e+00 -9.5327981e-02 
1.5916389e+00 1.4197513e+00 -1.2504135e-01 
1.5768267e+00 1.4049678e+00 -8.9869298e-02 
1.5825900e+00 1.4107094e+00 -1.1608730e-01 
1.5752692e+00 1.4033898e+00 -1.1396509e-01 
1.5817034e+00 1.4098263e+00 -1.1268265e-01 
1.5677350e+00 1.3958867e+00 -1.0437715e-01 
1.5684063e+00 1.3965420e+00 -8.7087609e-02 
1.5675542e+00 1.3956908e+00 -8.4727973e-02 
1.5657614e+00 1.3938981e+00 -1.1478629e-01 
1.5612493e+00 1.3893958e+00 -9.4022878e-02 
1.5646756e+00 1.3928243e+00 -9.8180965e-02 
1.5566156e+00 1.3847735e+00 -1.1164772e-01 
1.5722535e+00 1.4003687e+00 -1.2343428e-01 
1.5539427e+00 1.3821012e+00 -1.0309026e-01 
1.5546210e+00 1.3827645e+00 -8.5794359e-02 
1.5573593e+00 1.3855133e+00 -8.6876340e-02 
1.5623431e+00 1.3904752e+00 -1.1109794e-01 
1.5589799e+00 1.3871130e+00 -1.1422320e-01 
1.5525525e+00 1.3806977e+00 -1.1206351e-01 
1.5475053e+00 1.3756636e+00 -9.2733577e-02 
1.5481679e+00 1.3763237e+00 -8.2815416e-02 
1.5465198e+00 1.3746772e+00 -1.1326008e-01 
1.5466892e+00 1.3748617e+00 -9.3109138e-02 
1.5402526e+00 1.3684295e+00 -1.0180607e-01 
1.5402036e+00 1.3683624e+00 -8.3655983e-02 
1.5375262e+00 1.3657061e+00 -1.1012575e-01 
1.5529108e+00 1.3810444e+00 -1.2183117e-01 
1.5381168e+00 1.3663020e+00 -8.4890716e-02 
1.5338566e+00 1.3620378e+00 -9.1447018e-02 
1.5362990e+00 1.3644637e+00 -1.1084530e-01 
1.5415289e+00 1.3696960e+00 -1.0445388e-01 
1.5427537e+00 1.3709139e+00 -1.1453864e-01 
1.5349818e+00 1.3631495e+00 -1.1070123e-01 
1.5290675e+00 1.3572581e+00 -8.0952488e-02 
1.5266463e+00 1.3548508e+00 -1.0052656e-01 
1.5273266e+00 1.3555145e+00 -8.3245806e-02 
1.5275946e+00 1.3557754e+00 -1.1174480e-01 
1.5276120e+00 1.3558201e+00 -9.0948224e-02 
1.5203047e+00 1.3485203e+00 -9.0179220e-02 
1.5187514e+00 1.3469651e+00 -1.0861233e-01 
1.5336202e+00 1.3617877e+00 -1.2025264e-01 
1.5191687e+00 1.3473970e+00 -8.2951412e-02 
1.5154157e+00 1.3436364e+00 -8.1118621e-02 
1.5131531e+00 1.3413922e+00 -9.9252664e-02 
1.5175409e+00 1.3457360e+00 -1.0936223e-01 
1.5234917e+00 1.3516841e+00 -1.1296150e-01 
1.5237470e+00 1.3519400e+00 -1.0793678e-01 
1.5102594e+00 1.3384967e+00 -7.9125933e-02 
1.5167754e+00 1.3449875e+00 -9.8660424e-02 
1.5089774e+00 1.3372040e+00 -1.1024645e-01 
1.5068605e+00 1.3351066e+00 -8.8918366e-02 
1.5130634e+00 1.3412697e+00 -1.0887387e-01 
1.5088302e+00 1.3370882e+00 -8.8839278e-02 
1.4997483e+00 1.3280202e+00 -9.7994104e-02 
1.5002780e+00 1.3285478e+00 -1.0712673e-01 
1.5143539e+00 1.3425535e+00 -1.1863860e-01 
1.5005101e+00 1.3287964e+00 -8.1055313e-02 
1.4980478e+00 1.3263193e+00 -7.9292521e-02 
1.4990916e+00 1.3273430e+00 -1.0790270e-01 
1.4934930e+00 1.3217912e+00 -8.7674379e-02 
1.5042616e+00 1.3324871e+00 -1.1138166e-01 
1.5045097e+00 1.3327379e+00 -1.0636012e-01 
1.4917345e+00 1.3200415e+00 -7.7335052e-02 
1.4906644e+00 1.3189554e+00 -1.0876749e-01 
1.4864337e+00 1.3147624e+00 -9.6733190e-02 
1.4871132e+00 1.3154240e+00 -7.9521745e-02 
1.4944707e+00 1.3227569e+00 -9.5332220e-02 
1.4938987e+00 1.3221630e+00 -1.0725719e-01 
1.4903362e+00 1.3186631e+00 -8.6781941e-02 
1.4842229e+00 1.3125570e+00 -8.6800471e-02 
1.4821138e+00 1.3104571e+00 -1.0565580e-01 
1.4802319e+00 1.3085829e+00 -8.6444654e-02 
1.4951493e+00 1.3233935e+00 -1.1703024e-01 
1.4804085e+00 1.3087573e+00 -7.6551996e-02 
1.4821402e+00 1.3104987e+00 -7.9205692e-02 
1.4809494e+00 1.3092703e+00 -1.0646518e-01 
1.4851079e+00 1.3134025e+00 -1.0980092e-01 
1.4853472e+00 1.3136485e+00 -1.0479004e-01 
1.4732276e+00 1.3016225e+00 -9.5483676e-02 
1.4738896e+00 1.3022655e+00 -7.8311659e-02 
1.4730164e+00 1.3014014e+00 -9.0301193e-02 
1.4734861e+00 1.3018776e+00 -7.5594068e-02 
1.4731894e+00 1.3015751e+00 -9.2748851e-02 
1.4726670e+00 1.3010318e+00 -1.0729922e-01 
1.4753597e+00 1.3037390e+00 -9.3804546e-02 
1.4748077e+00 1.3031563e+00 -1.0564312e-01 
1.4721347e+00 1.3005449e+00 -8.4788211e-02 
1.4670745e+00 1.2954934e+00 -8.5215881e-02 
1.4672419e+00 1.2956603e+00 -7.5353183e-02 
1.4642514e+00 1.2926817e+00 -1.0418428e-01 
1.4620879e+00 1.2905285e+00 -7.7874854e-02 
1.4640390e+00 1.2924956e+00 -7.7390537e-02 
1.4760203e+00 1.3043435e+00 -1.1542352e-01 
1.4619145e+00 1.2903608e+00 -8.4838279e-02 
1.4601203e+00 1.2885795e+00 -9.4240203e-02 
1.4631191e+00 1.2915319e+00 -1.0506382e-01 
1.4660283e+00 1.2944218e+00 -1.0822439e-01 
1.4662600e+00 1.2946627e+00 -1.0322439e-01 
1.4540199e+00 1.2825148e+00 -8.4017932e-02 
1.4555293e+00 1.2840271e+00 -7.3886409e-02 
1.4549434e+00 1.2834111e+00 -1.0584755e-01 
1.4542069e+00 1.2827227e+00 -8.2806341e-02 
1.4563204e+00 1.2847991e+00 -9.2301674e-02 
1.4557862e+00 1.2842386e+00 -1.0404922e-01 
1.4471192e+00 1.2756579e+00 -9.3018852e-02 
1.4483089e+00 1.2768453e+00 -8.4335327e-02 
1.4477721e+00 1.2763065e+00 -7.5944543e-02 
1.4466759e+00 1.2752074e+00 -1.0275121e-01 
1.4462210e+00 1.2747819e+00 -7.5620420e-02 
1.4569718e+00 1.2853955e+00 -1.1381537e-01 
1.4455700e+00 1.2740842e+00 -1.0366152e-01 
1.4410605e+00 1.2696425e+00 -8.2817920e-02 
1.4412248e+00 1.2698057e+00 -7.2961792e-02 
1.4377668e+00 1.2663604e+00 -9.0513617e-02 
1.4375328e+00 1.2661048e+00 -1.0441792e-01 
1.4378358e+00 1.2664485e+00 -7.2217762e-02 
1.4470294e+00 1.2755311e+00 -1.0664812e-01 
1.4472541e+00 1.2757658e+00 -1.0165815e-01 
1.4358510e+00 1.2644680e+00 -8.3151057e-02 
1.4350779e+00 1.2637019e+00 -8.8310406e-02 
1.4342016e+00 1.2628326e+00 -9.1800839e-02 
1.4348577e+00 1.2634867e+00 -7.4773274e-02 
1.4365437e+00 1.2651805e+00 -8.0887206e-02 
1.4373479e+00 1.2659568e+00 -9.0783194e-02 
1.4368297e+00 1.2654074e+00 -1.0244841e-01 
1.4293958e+00 1.2580458e+00 -1.0132685e-01 
1.4281929e+00 1.2568772e+00 -8.1638582e-02 
1.4283589e+00 1.2570422e+00 -7.1797311e-02 
1.4286876e+00 1.2573856e+00 -7.3900551e-02 
1.4282982e+00 1.2569302e+00 -1.0230253e-01 
1.4379956e+00 1.2665350e+00 -1.1220694e-01 
1.4213817e+00 1.2501147e+00 -9.0594798e-02 
1.4220449e+00 1.2507750e+00 -7.3617257e-02 
1.4207357e+00 1.2494678e+00 -8.6068921e-02 
1.4203995e+00 1.2491022e+00 -1.0300747e-01 
1.4204113e+00 1.2491635e+00 -7.0567891e-02 
1.4280918e+00 1.2567215e+00 -1.0507129e-01 
1.4283109e+00 1.2569513e+00 -1.0009349e-01 
1.4154193e+00 1.2442080e+00 -8.0483712e-02 