# vtk DataFile Version 4.0
vtk output
ASCII
DATASET UNSTRUCTURED_GRID
POINTS 6166 float
-4.3633327e-01 9.6409470e-01 4.4200001e+01 
-4.3633261e-01 9.6409082e-01 4.4079685e+01 
-3.2145375e-01 9.1276109e-01 4.4200001e+01 
-3.8566181e-01 8.4097892e-01 4.4200001e+01 
-3.3069235e-01 9.1895354e-01 4.4019413e+01 
-3.8473952e-01 8.3919770e-01 4.4024357e+01 
-4.3633196e-01 9.6408689e-01 4.3958702e+01 
-2.1293370e-01 8.4677851e-01 4.4200001e+01 
-2.9042658e-01 7.3813015e-01 4.4200001e+01 
-2.1019450e-01 8.4669626e-01 4.4077393e+01 
-2.8909999e-01 7.3605996e-01 4.4073399e+01 
-3.2963324e-01 9.1929907e-01 4.3898094e+01 
-3.8679782e-01 8.4179753e-01 4.3889645e+01 
-2.0740938e-01 8.4661204e-01 4.3952713e+01 
-4.3633130e-01 9.6408290e-01 4.3837040e+01 
-1.1677200e-01 7.7521002e-01 4.4200001e+01 
-2.8775173e-01 7.3395580e-01 4.3944717e+01 
-1.9365783e-01 6.6203654e-01 4.4200001e+01 
-1.1309985e-01 7.7540898e-01 4.4012005e+01 
-1.9181472e-01 6.5888047e-01 4.4006447e+01 
-3.2856464e-01 9.1964108e-01 4.3776085e+01 
-3.8823184e-01 8.4352189e-01 4.3765770e+01 
-2.0457739e-01 8.4652513e-01 4.3825886e+01 
-2.8638119e-01 7.3181647e-01 4.3813885e+01 
-4.3633065e-01 9.6407896e-01 4.3714680e+01 
-1.0911675e-01 7.7426714e-01 4.3886200e+01 
-2.1001574e-02 6.8269837e-01 4.4200001e+01 
-1.8902887e-01 6.5566909e-01 4.3876659e+01 
-7.8887597e-02 5.9015810e-01 4.4200001e+01 
-3.2748649e-01 9.1997939e-01 4.3653378e+01 
-3.9889076e-01 8.5876143e-01 4.3651733e+01 
-2.0169757e-01 8.4643483e-01 4.3696846e+01 
-7.2496021e-03 6.7325598e-01 4.3947758e+01 
-1.0504345e-01 7.7307969e-01 4.3758209e+01 
-2.8498772e-01 7.2964084e-01 4.3680840e+01 
-6.3224643e-02 5.7783771e-01 4.3940754e+01 
3.5808440e-02 6.2679136e-01 4.4056572e+01 
-1.8616955e-01 6.5238589e-01 4.3744686e+01 
-4.3632996e-01 9.6407503e-01 4.3591618e+01 
-9.8678423e-03 5.4892725e-01 4.4055367e+01 
-1.8652271e-02 6.8798620e-01 4.3834026e+01 
-7.9845116e-02 5.8636194e-01 4.3823372e+01 
8.7777540e-02 5.7885915e-01 4.4200001e+01 
5.3622175e-02 5.1732427e-01 4.4200001e+01 
-3.2639861e-01 9.2031354e-01 4.3529953e+01 
-3.9894739e-01 8.5844576e-01 4.3528313e+01 
-1.9876897e-01 8.4634024e-01 4.3565521e+01 
-1.0087753e-01 7.7184403e-01 4.3627972e+01 
-2.8357074e-01 7.2742778e-01 4.3545506e+01 
-1.8323407e-01 6.4902818e-01 4.3610458e+01 
-4.3632931e-01 9.6407109e-01 4.3467831e+01 
3.1033519e-03 6.6751039e-01 4.3691772e+01 
-5.3600248e-02 5.6906003e-01 4.3676846e+01 
1.2436585e-01 5.5082864e-01 4.3886215e+01 
1.7079005e-01 5.1095647e-01 4.4054855e+01 
1.4951277e-01 4.6697062e-01 4.4053665e+01 
1.0028158e-01 4.8915190e-01 4.3877911e+01 
-4.0513036e-01 8.6722642e-01 4.3405304e+01 
-3.2530096e-01 9.2064321e-01 4.3405800e+01 
-9.6616447e-02 7.7055699e-01 4.3495411e+01 
-8.4563000e-03 6.8258613e-01 4.3574005e+01 
-1.9579062e-01 8.4624058e-01 4.3431831e+01 
2.1753120e-01 4.7335833e-01 4.4200001e+01 
2.0360756e-01 4.4289169e-01 4.4200001e+01 
-1.8021962e-01 6.4559317e-01 4.3473904e+01 
-7.0636064e-02 5.7773441e-01 4.3555408e+01 
-2.8212959e-01 7.2517604e-01 4.3407806e+01 
-4.3632865e-01 9.6406716e-01 4.3343307e+01 
1.3810426e-01 5.4143524e-01 4.3628246e+01 
-3.2419339e-01 9.2096806e-01 4.3280907e+01 
-3.9903235e-01 8.5775709e-01 4.3279266e+01 
-9.2257597e-02 7.6921552e-01 4.3360443e+01 
1.1508528e-01 4.7804743e-01 4.3612068e+01 
-1.9276154e-01 8.4613472e-01 4.3295704e+01 
1.4013666e-02 6.6131532e-01 4.3426643e+01 
-1.7712323e-01 6.4207786e-01 4.3334946e+01 
-2.8066361e-01 7.2288430e-01 4.3267666e+01 
-4.3382257e-02 5.5983055e-01 4.3403778e+01 
-4.3632799e-01 9.6406323e-01 4.3218033e+01 
3.7877345e-01 3.8273901e-01 4.4200001e+01 
3.9076596e-01 3.7443376e-01 4.3993755e+01 
-3.2307580e-01 9.2128778e-01 4.3155251e+01 
-3.9906058e-01 8.5738426e-01 4.3153610e+01 
-8.7798268e-02 7.6781619e-01 4.3222996e+01 
1.9689407e-02 6.5803534e-01 4.3290459e+01 
-6.0862999e-02 5.6866169e-01 4.3278019e+01 
-1.8968078e-01 8.4602165e-01 4.3157055e+01 
-1.7394182e-01 6.3847917e-01 4.3193501e+01 
-4.3632734e-01 9.6405929e-01 4.3091995e+01 
4.0275589e-01 3.6612594e-01 4.3787510e+01 
1.2304078e-01 5.5709994e-01 4.3330139e+01 
-2.7917209e-01 7.2055119e-01 4.3125000e+01 
2.5336364e-01 4.4907436e-01 4.3468094e+01 
2.3670304e-01 4.1684708e-01 4.3469433e+01 
1.3086085e-01 4.6634668e-01 4.3336948e+01 
-3.8351217e-01 8.3473074e-01 4.3036392e+01 
-3.2194808e-01 9.2160189e-01 4.3028820e+01 
2.5518833e-02 6.5462554e-01 4.3151749e+01 
-8.3235659e-02 7.6635528e-01 4.3082981e+01 
4.1474071e-01 3.5781288e-01 4.3581264e+01 
-1.8654740e-01 8.4590012e-01 4.3015797e+01 
-3.2522827e-02 5.5011308e-01 4.3120937e+01 
-1.7067213e-01 6.3479382e-01 4.3049488e+01 
-4.3632668e-01 9.6405542e-01 4.2965172e+01 
-2.7765438e-01 7.1817529e-01 4.2979721e+01 
2.6620242e-01 4.4011977e-01 4.3261948e+01 
1.3584816e-02 6.7044950e-01 4.3025066e+01 
-3.2081014e-01 9.2191011e-01 4.2901604e+01 
-3.8160574e-01 8.3169121e-01 4.2902863e+01 
-7.8566879e-02 7.6482886e-01 4.2940315e+01 
-5.0480481e-02 5.5910730e-01 4.2990566e+01 
4.2671782e-01 3.4949207e-01 4.3375019e+01 
1.6821145e-01 5.2049083e-01 4.3083881e+01 
-1.8336046e-01 8.4576881e-01 4.2871841e+01 
-4.3632606e-01 9.6405160e-01 4.2837555e+01 
-1.6731077e-01 6.3101834e-01 4.2902817e+01 
1.4768846e-01 4.5400122e-01 4.3051926e+01 
-2.7610970e-01 7.1575516e-01 4.2831745e+01 
-3.1966189e-01 9.2221189e-01 4.2773579e+01 
-3.8560396e-01 8.3684862e-01 4.2767078e+01 
3.7660085e-02 6.4738947e-01 4.2866421e+01 
-7.3788933e-02 7.6323271e-01 4.2794899e+01 
4.3868470e-01 3.4116083e-01 4.3168777e+01 
-4.3632543e-01 9.6404779e-01 4.2709122e+01 
-2.0968946e-02 5.3986710e-01 4.2827656e+01 
-1.8011902e-01 8.4562629e-01 4.2725094e+01 
-1.6385415e-01 6.2714905e-01 4.2753403e+01 
-2.7453732e-01 7.1328926e-01 4.2680973e+01 
-3.1850323e-01 9.2250693e-01 4.2644733e+01 
-3.9907700e-01 8.5570478e-01 4.2643101e+01 
2.5504474e-02 6.6361672e-01 4.2734810e+01 
1.8471870e-01 5.0880390e-01 4.2796177e+01 
-6.8898737e-02 7.6156229e-01 4.2646645e+01 
-3.9438177e-02 5.4903054e-01 4.2692345e+01 
-4.3632481e-01 9.6404403e-01 4.2579861e+01 
4.5063871e-01 3.3281663e-01 4.2962532e+01 
1.6565691e-01 4.4095638e-01 4.2756321e+01 
-1.7682223e-01 8.4547096e-01 4.2575459e+01 
-1.6029853e-01 6.2318206e-01 4.2601143e+01 
-4.0415615e-01 8.6278629e-01 4.2516582e+01 
-3.1733403e-01 9.2279470e-01 4.2515053e+01 
-2.7293649e-01 7.1077597e-01 4.2527313e+01 
5.0482783e-02 6.3954860e-01 4.2569923e+01 
-4.3632418e-01 9.6404034e-01 4.2449757e+01 
-6.3893095e-02 7.5981271e-01 4.2495445e+01 
-8.6617703e-03 5.2904755e-01 4.2523201e+01 
-1.7346917e-01 8.4530097e-01 4.2422829e+01 
-1.5663996e-01 6.1911333e-01 4.2445942e+01 
3.0435190e-01 4.1341871e-01 4.2643494e+01 
4.6257737e-01 3.2445681e-01 4.2756287e+01 
-3.1615424e-01 9.2307472e-01 4.2384518e+01 
-3.9902648e-01 8.5475212e-01 4.2382885e+01 
-2.7130640e-01 7.0821363e-01 4.2370659e+01 
3.8079392e-02 6.5619886e-01 4.2433029e+01 
2.0230262e-01 4.9620378e-01 4.2497147e+01 
-4.3632355e-01 9.6403670e-01 4.2318787e+01 
-5.8768708e-02 7.5797862e-01 4.2341198e+01 
-2.7680276e-02 5.3838593e-01 4.2382599e+01 
1.8486446e-01 4.2715022e-01 4.2449394e+01 
-3.8436696e-01 8.3356136e-01 4.2264896e+01 
8.9545198e-02 5.3233254e-01 4.2382050e+01 
-3.3225983e-01 9.3122375e-01 4.2255634e+01 
-1.7005907e-01 8.4511453e-01 4.2267101e+01 
-1.5287429e-01 6.1493850e-01 4.2287693e+01 
4.7449806e-01 3.1607881e-01 4.2550037e+01 
-2.6964626e-01 7.0560038e-01 4.2210907e+01 
-4.3632296e-01 9.6403313e-01 4.2186939e+01 
6.4036883e-02 6.3103610e-01 4.2261456e+01 
-5.3522192e-02 7.5605446e-01 4.2183796e+01 
-3.7873057e-01 8.2541841e-01 4.2124020e+01 
-3.1376252e-01 9.2360973e-01 4.2120819e+01 
4.4639236e-03 5.1760370e-01 4.2206776e+01 
-1.6659111e-01 8.4490943e-01 4.2108162e+01 
-1.4899719e-01 6.1065292e-01 4.2126286e+01 
-4.3632239e-01 9.6402961e-01 4.2054195e+01 
4.8639825e-01 3.0768004e-01 4.2343792e+01 
-2.6795524e-01 7.0293444e-01 4.2047943e+01 
2.4746621e-01 4.6040925e-01 4.2191032e+01 
7.1105182e-02 6.2650448e-01 4.2102463e+01 
-3.1255043e-01 9.2386365e-01 4.1987617e+01 
-4.8150036e-02 7.5403398e-01 4.2023121e+01 
-1.5144684e-02 5.2712250e-01 4.2060505e+01 
-3.7995064e-01 8.2661813e-01 4.1980038e+01 
2.0541981e-01 4.1251117e-01 4.2130333e+01 
-1.6306458e-01 8.4468329e-01 4.1945896e+01 
-4.3632182e-01 9.6402621e-01 4.1920536e+01 
-1.4500406e-01 6.0625184e-01 4.1961609e+01 
1.3375351e-01 5.6370503e-01 4.1969833e+01 
-2.6623246e-01 7.0021385e-01 4.1881653e+01 
-3.1132740e-01 9.2410773e-01 4.1853493e+01 
-3.9880505e-01 8.5261923e-01 4.1851868e+01 
4.9827534e-01 2.9925787e-01 4.2137547e+01 
3.4194937e-01 3.8685825e-01 4.2025021e+01 
-4.2648647e-02 7.5191063e-01 4.1859051e+01 
-2.5401810e-01 7.9503769e-01 4.1808533e+01 
1.8480448e-02 5.0547802e-01 4.1877510e+01 
-4.3632126e-01 9.6402287e-01 4.1785946e+01 
-1.5947884e-01 8.4443361e-01 4.1780174e+01 
-1.4089009e-01 6.0172999e-01 4.1793541e+01 
-3.1009343e-01 9.2434150e-01 4.1718426e+01 
-4.0306881e-01 8.5845691e-01 4.1716179e+01 
8.5861288e-02 6.1683756e-01 4.1774368e+01 
-2.6447710e-01 6.9743657e-01 4.1711910e+01 
3.0427080e-01 4.1638452e-01 4.1839512e+01 
2.6751360e-01 3.7833902e-01 4.1830902e+01 
5.1012677e-01 2.9080975e-01 4.1931297e+01 
-3.7014309e-02 7.4967718e-01 4.1691463e+01 
-4.3632072e-01 9.6401966e-01 4.1650398e+01 
2.5847588e-02 4.9913955e-01 4.1707767e+01 
-1.5583332e-01 8.4415752e-01 4.1610870e+01 
-3.8322043e-01 8.2981020e-01 4.1595791e+01 
-3.0884841e-01 9.2456430e-01 4.1582397e+01 
-1.3665022e-01 5.9708190e-01 4.1621960e+01 
9.3565010e-02 6.1167872e-01 4.1605015e+01 
-2.6268822e-01 6.9460052e-01 4.1538593e+01 
-4.3632022e-01 9.6401656e-01 4.1513885e+01 
-3.1243213e-02 7.4732590e-01 4.1520226e+01 
2.7603787e-01 3.7115356e-01 4.1624012e+01 
2.8505871e-01 4.3281260e-01 4.1611507e+01 
5.2195001e-01 2.8233302e-01 4.1725052e+01 
3.3468332e-02 4.9260557e-01 4.1534447e+01 
-3.9853087e-01 8.5081697e-01 4.1443768e+01 
-3.2560509e-01 9.3245691e-01 4.1443577e+01 
-1.5212752e-01 8.4385180e-01 4.1437847e+01 
-1.3227913e-01 5.9230179e-01 4.1446728e+01 
-4.3631971e-01 9.6401358e-01 4.1376381e+01 
[...]
POINT_DATA 6166
FIELD FieldData 5
DISPLACEMENT 3 6166  float
3.5990566e-01 3.3006403e-01 -4.6659177e-03 
3.5776028e-01 3.2789755e-01 -4.6272087e-03 
3.5988721e-01 3.3003497e-01 -5.7895808e-03 
3.5989711e-01 3.3006749e-01 -3.3521140e-03 
3.5666865e-01 3.2678527e-01 -5.6783748e-03 
3.5676503e-01 3.2690477e-01 -3.2800627e-03 
3.5560301e-01 3.2571909e-01 -4.5882724e-03 
3.5986969e-01 3.3001038e-01 -6.5360484e-03 
3.5988155e-01 3.3005321e-01 -3.1978118e-03 
3.5768306e-01 3.2780179e-01 -6.5440186e-03 
3.5762388e-01 3.2777345e-01 -3.1435157e-03 
3.5450518e-01 3.2460034e-01 -5.6644832e-03 
3.5436332e-01 3.2447937e-01 -3.2469279e-03 
3.5545936e-01 3.2555583e-01 -6.5520881e-03 
3.5343364e-01 3.2352838e-01 -4.5491061e-03 
3.5985410e-01 3.2999071e-01 -6.9615883e-03 
3.5532910e-01 3.2545623e-01 -3.0883441e-03 
3.5986584e-01 3.3003408e-01 -3.5526752e-03 
3.5650137e-01 3.2660437e-01 -6.9702482e-03 
3.5641429e-01 3.2654878e-01 -3.4665375e-03 
3.5232952e-01 3.2240307e-01 -5.6504440e-03 
3.5215479e-01 3.2224905e-01 -3.2126529e-03 
3.5319749e-01 3.2327127e-01 -6.5602288e-03 
3.5299605e-01 3.2310042e-01 -3.0322894e-03 
3.5125193e-01 3.2132527e-01 -4.5097112e-03 
3.5425746e-01 3.2433790e-01 -6.9802511e-03 
3.5983849e-01 3.2997453e-01 -7.0029749e-03 
3.5409951e-01 3.2421136e-01 -3.4167180e-03 
3.5984731e-01 3.3000839e-01 -4.3043676e-03 
3.5014144e-01 3.2019326e-01 -5.6362404e-03 
3.5012326e-01 3.2019684e-01 -3.2604807e-03 
3.5089621e-01 3.2094693e-01 -6.5684076e-03 
3.5533848e-01 3.2542956e-01 -6.9970661e-03 
3.5197470e-01 3.2203224e-01 -6.9903159e-03 
3.5062358e-01 3.2070482e-01 -2.9753444e-03 
3.5522208e-01 3.2533717e-01 -4.2784954e-03 
3.5727173e-01 3.2738248e-01 -6.9628977e-03 
3.5174587e-01 3.2183468e-01 -3.3662836e-03 
3.4905773e-01 3.1910956e-01 -4.4700946e-03 
3.5725710e-01 3.2738820e-01 -4.7458834e-03 
3.5331246e-01 3.2338303e-01 -7.0224954e-03 
3.5313165e-01 3.2322755e-01 -4.0980391e-03 
3.5982075e-01 3.2995600e-01 -7.0722760e-03 
3.5982591e-01 3.2997710e-01 -5.3551057e-03 
3.4794074e-01 3.1797084e-01 -5.6218938e-03 
3.4792274e-01 3.1797481e-01 -3.2142387e-03 
3.4855428e-01 3.1858161e-01 -6.5765954e-03 
3.4965190e-01 3.1968617e-01 -7.0003862e-03 
3.4821042e-01 3.1826812e-01 -2.9174506e-03 
3.4935209e-01 3.1941757e-01 -3.3151540e-03 
3.4685078e-01 3.1688109e-01 -4.4301720e-03 
3.5077241e-01 3.2081786e-01 -6.9958558e-03 
3.5051471e-01 3.2058352e-01 -4.2073540e-03 
3.5421959e-01 3.2429829e-01 -7.1189534e-03 
3.5721910e-01 3.2732633e-01 -7.2827344e-03 
3.5720110e-01 3.2731900e-01 -6.1108284e-03 
3.5407504e-01 3.2416666e-01 -5.5761468e-03 
3.4573087e-01 3.1576115e-01 -3.2227279e-03 
3.4572721e-01 3.1573546e-01 -5.6072911e-03 
3.4728780e-01 3.1729841e-01 -7.0104264e-03 
3.4867463e-01 3.1869885e-01 -7.0233457e-03 
3.4617046e-01 3.1617400e-01 -6.5847561e-03 
3.5979968e-01 3.2993090e-01 -7.4855541e-03 
3.5980177e-01 3.2994038e-01 -6.6886009e-03 
3.4691703e-01 3.1695879e-01 -3.2634458e-03 
3.4835231e-01 3.1840137e-01 -4.0210108e-03 
3.4575537e-01 3.1578925e-01 -2.8587177e-03 
3.4463102e-01 3.1463966e-01 -4.3900982e-03 
3.4961751e-01 3.1965032e-01 -7.1117943e-03 
3.4350076e-01 3.1348723e-01 -5.5926386e-03 
3.4348315e-01 3.1349215e-01 -3.1206959e-03 
3.4488115e-01 3.1486776e-01 -7.0203706e-03 
3.4933233e-01 3.1937680e-01 -5.5547990e-03 
3.4374344e-01 3.1372294e-01 -6.5928008e-03 
3.4604374e-01 3.1604204e-01 -6.9934232e-03 
3.4443939e-01 3.1445706e-01 -3.2111139e-03 
3.4325707e-01 3.1326675e-01 -2.7989107e-03 
3.4564453e-01 3.1566563e-01 -4.1360185e-03 
3.4239814e-01 3.1238514e-01 -4.3497090e-03 
3.5977367e-01 3.2989311e-01 -8.7282117e-03 
3.5609403e-01 3.2617655e-01 -8.7261703e-03 
3.4126109e-01 3.1122553e-01 -5.5777612e-03 
3.4124380e-01 3.1123111e-01 -3.0733636e-03 
3.4243056e-01 3.1239292e-01 -7.0301634e-03 
3.4361523e-01 3.1358948e-01 -6.9915415e-03 
3.4340578e-01 3.1340656e-01 -3.9434591e-03 
3.4127179e-01 3.1122696e-01 -6.6006528e-03 
3.4191787e-01 3.1191120e-01 -3.1581477e-03 
3.4015191e-01 3.1011727e-01 -4.3090866e-03 
3.5241437e-01 3.2246009e-01 -8.7240078e-03 
3.4430528e-01 3.1428593e-01 -7.0292372e-03 
3.4071428e-01 3.1069955e-01 -2.7382076e-03 
3.4674323e-01 3.1674421e-01 -7.4517690e-03 
3.4676957e-01 3.1677893e-01 -6.5749418e-03 
3.4442472e-01 3.1442061e-01 -5.5370717e-03 
3.3915243e-01 3.0912083e-01 -2.9054475e-03 
3.3900803e-01 3.0895066e-01 -5.5624875e-03 
3.4114215e-01 3.1109214e-01 -6.9892863e-03 
3.3993468e-01 3.0987251e-01 -7.0398110e-03 
3.4873500e-01 3.1874403e-01 -8.7215770e-03 
3.3875424e-01 3.0868477e-01 -6.6085756e-03 
3.4060144e-01 3.1057367e-01 -4.0646819e-03 
3.3935094e-01 3.0931976e-01 -3.1043456e-03 
3.3789229e-01 3.0783603e-01 -4.2681429e-03 
3.3812547e-01 3.0808604e-01 -2.6765163e-03 
3.4306630e-01 3.1303069e-01 -7.4527208e-03 
3.3888686e-01 3.0881447e-01 -7.0204823e-03 
3.3674136e-01 3.0666232e-01 -5.5470979e-03 
3.3677310e-01 3.0671906e-01 -2.8421301e-03 
3.3739203e-01 3.0730507e-01 -7.0491959e-03 
3.3828151e-01 3.0823293e-01 -3.8653025e-03 
3.4505627e-01 3.1502846e-01 -8.7184757e-03 
3.3990890e-01 3.0984569e-01 -7.0960317e-03 
3.3618924e-01 3.0609488e-01 -6.6161775e-03 
3.3561879e-01 3.0554104e-01 -4.2268573e-03 
3.3673745e-01 3.0668139e-01 -3.0501257e-03 
3.3934224e-01 3.0928835e-01 -5.5239266e-03 
3.3548918e-01 3.0542502e-01 -2.6138613e-03 
3.3446082e-01 3.0436012e-01 -5.5313944e-03 
3.3435535e-01 3.0427819e-01 -2.8206566e-03 
3.3605656e-01 3.0595720e-01 -6.9831349e-03 
3.3480120e-01 3.0468920e-01 -7.0582642e-03 
3.4137774e-01 3.1131342e-01 -8.7152040e-03 
3.3333153e-01 3.0323246e-01 -4.1854633e-03 
3.3537444e-01 3.0529678e-01 -3.9932351e-03 
3.3357531e-01 3.0345592e-01 -6.6234157e-03 
3.3407554e-01 3.0399466e-01 -2.9949804e-03 
3.3280420e-01 3.0271506e-01 -2.5503729e-03 
3.3216658e-01 3.0204424e-01 -5.5152900e-03 
3.3215034e-01 3.0205175e-01 -2.8805526e-03 
3.3371484e-01 3.0359259e-01 -7.0157484e-03 
3.3478072e-01 3.0466789e-01 -7.0872502e-03 
3.3216068e-01 3.0202350e-01 -7.0667653e-03 
3.3296803e-01 3.0286935e-01 -3.7865683e-03 
3.3103058e-01 3.0091015e-01 -4.1439962e-03 
3.3770078e-01 3.0760074e-01 -8.7114871e-03 
3.3407348e-01 3.0396864e-01 -5.5152928e-03 
3.3091104e-01 3.0076665e-01 -6.6302717e-03 
3.3136439e-01 3.0125833e-01 -2.9396142e-03 
3.2989919e-01 2.9977977e-01 -2.8774852e-03 
3.2985845e-01 2.9971501e-01 -5.4992535e-03 
3.3006909e-01 2.9995468e-01 -2.4856150e-03 
3.3077559e-01 3.0062595e-01 -6.9740815e-03 
3.2871544e-01 2.9857391e-01 -4.1020135e-03 
3.2946932e-01 2.9930696e-01 -7.0747570e-03 
3.2995251e-01 2.9982442e-01 -3.9223437e-03 
3.2819486e-01 2.9802525e-01 -6.6367132e-03 
3.2860249e-01 2.9847115e-01 -2.8830320e-03 
3.3204296e-01 3.0190068e-01 -7.4526612e-03 
3.3402562e-01 3.0389056e-01 -8.7071788e-03 
3.2753593e-01 2.9737094e-01 -5.4829400e-03 
3.2752022e-01 2.9737937e-01 -2.7825104e-03 
3.2728204e-01 2.9714257e-01 -2.4197132e-03 
3.2834220e-01 2.9816982e-01 -7.0082671e-03 
3.2945499e-01 2.9929212e-01 -7.0773470e-03 
3.2638603e-01 2.9622346e-01 -4.0600477e-03 
3.2672471e-01 2.9653707e-01 -7.0825443e-03 
3.2745445e-01 2.9730529e-01 -3.7078145e-03 
3.2860750e-01 2.9845166e-01 -5.5118464e-03 
3.2541987e-01 2.9526120e-01 -2.6261923e-03 
3.2742596e-01 2.9725766e-01 -5.6834263e-03 
3.2524696e-01 2.9506278e-01 -5.3006886e-03 
3.2542500e-01 2.9523009e-01 -6.6427044e-03 
3.2578725e-01 2.9563093e-01 -2.8263107e-03 
3.3035204e-01 3.0018184e-01 -8.7016821e-03 
3.2444146e-01 2.9427704e-01 -2.3532000e-03 
3.2404253e-01 2.9385936e-01 -4.0177517e-03 
3.2528627e-01 2.9508632e-01 -6.9621480e-03 
3.2392576e-01 2.9371259e-01 -7.0894854e-03 
3.2291520e-01 2.9273528e-01 -2.5361818e-03 
3.2284841e-01 2.9264134e-01 -5.4486971e-03 
3.2432243e-01 2.9414374e-01 -3.8517630e-03 
3.2260004e-01 2.9237974e-01 -6.6485084e-03 
3.2291749e-01 2.9273626e-01 -2.7683759e-03 
3.2168448e-01 2.9148072e-01 -3.9749485e-03 
3.2668048e-01 2.9647660e-01 -8.6956136e-03 
3.2154572e-01 2.9135635e-01 -2.2854614e-03 
3.2400337e-01 2.9379031e-01 -7.1394448e-03 
3.2245988e-01 2.9223430e-01 -6.9549647e-03 
3.2048255e-01 2.9025534e-01 -5.4312744e-03 
3.2107046e-01 2.9083195e-01 -7.0954254e-03 
3.2172662e-01 2.9152709e-01 -3.6290463e-03 
3.2035795e-01 2.9015633e-01 -2.4910555e-03 
3.2293075e-01 2.9272339e-01 -5.5138795e-03 
3.1971797e-01 2.8947240e-01 -6.6533051e-03 
3.1931111e-01 2.8908750e-01 -3.9316895e-03 
3.1999207e-01 2.8978616e-01 -2.7105121e-03 
3.2009354e-01 2.8984812e-01 -6.8989396e-03 
3.1859341e-01 2.8837961e-01 -2.2169964e-03 
3.1810188e-01 2.8785473e-01 -5.4130894e-03 
3.1808671e-01 2.8786489e-01 -2.5825698e-03 
3.2301292e-01 2.9277658e-01 -8.6886734e-03 
3.2103857e-01 2.9079628e-01 -7.4448730e-03 
3.1815767e-01 2.8789398e-01 -7.1003432e-03 
3.1729496e-01 2.8705284e-01 -4.1066683e-03 
3.1847191e-01 2.8824317e-01 -3.7821438e-03 
3.1692362e-01 2.8668085e-01 -3.8882922e-03 
3.1677777e-01 2.8650773e-01 -6.6562053e-03 
3.1700972e-01 2.8677925e-01 -2.6527930e-03 
3.1570673e-01 2.8544024e-01 -5.3946571e-03 
3.1568182e-01 2.8544089e-01 -2.5699369e-03 
3.1663376e-01 2.8635845e-01 -6.9354079e-03 
3.1558308e-01 2.8534561e-01 -2.1479893e-03 
3.1775120e-01 2.8748238e-01 -7.2456454e-03 
3.1760359e-01 2.8734645e-01 -5.9103793e-03 
3.1934685e-01 2.8907782e-01 -8.6800018e-03 
3.1518620e-01 2.8489774e-01 -7.1039014e-03 
3.1452155e-01 2.8426012e-01 -3.8454577e-03 
3.1546071e-01 2.8520784e-01 -3.7485776e-03 
3.1377795e-01 2.8348348e-01 -6.6585513e-03 
3.1354594e-01 2.8329006e-01 -2.3739943e-03 
3.1329790e-01 2.8301263e-01 -5.3751981e-03 
3.1396791e-01 2.8371426e-01 -2.5932027e-03 
3.1363243e-01 2.8333268e-01 -6.9246981e-03 
3.1251389e-01 2.8225294e-01 -2.0775804e-03 
3.1210628e-01 2.8182587e-01 -3.8021985e-03 
3.1215319e-01 2.8184101e-01 -7.1062981e-03 
3.1393489e-01 2.8364837e-01 -5.8681131e-03 
3.1371301e-01 2.8341225e-01 -7.1247248e-03 
3.1568593e-01 2.8538620e-01 -8.6701205e-03 
3.1238970e-01 2.8211331e-01 -3.7148024e-03 
3.1086016e-01 2.8058231e-01 -2.4311070e-03 
3.1084564e-01 2.8054267e-01 -5.1742545e-03 
3.1071579e-01 2.8039837e-01 -6.6604968e-03 
3.1086627e-01 2.8058982e-01 -2.5340619e-03 
3.0967516e-01 2.7937695e-01 -3.7579101e-03 
3.1101093e-01 2.8069171e-01 -6.8719783e-03 
3.0938306e-01 2.7909967e-01 -2.0067701e-03 
3.0905795e-01 2.7872261e-01 -7.1075442e-03 
3.0843586e-01 2.7811447e-01 -5.3366469e-03 
3.0842057e-01 2.7812627e-01 -2.3798032e-03 
3.0925751e-01 2.7895853e-01 -3.6816958e-03 
3.1044626e-01 2.8013250e-01 -5.9451899e-03 
3.1203079e-01 2.8170204e-01 -8.6592389e-03 
3.0759078e-01 2.7725047e-01 -6.6611194e-03 
3.0988073e-01 2.7955025e-01 -7.2067240e-03 
3.0722877e-01 2.7691430e-01 -3.7124646e-03 
3.0770230e-01 2.7740401e-01 -2.4743574e-03 
3.0778477e-01 2.7744260e-01 -6.8491828e-03 
3.0598152e-01 2.7564397e-01 -5.3161094e-03 
3.0596641e-01 2.7565706e-01 -2.3281390e-03 
3.0618915e-01 2.7588454e-01 -1.9346036e-03 
3.0589795e-01 2.7554041e-01 -7.1076313e-03 
3.0606222e-01 2.7574179e-01 -3.6489910e-03 
3.0476737e-01 2.7443781e-01 -3.6678510e-03 
3.0695045e-01 2.7661371e-01 -5.7958798e-03 
3.0838197e-01 2.7802593e-01 -8.6464705e-03 
3.0439970e-01 2.7403796e-01 -6.6605611e-03 
3.0447385e-01 2.7415514e-01 -2.4140519e-03 
3.0633923e-01 2.7598381e-01 -7.2229765e-03 
3.0351242e-01 2.7315897e-01 -5.2949605e-03 
3.0349788e-01 2.7317315e-01 -2.2764651e-03 
3.0442542e-01 2.7406096e-01 -6.8329279e-03 
3.0292967e-01 2.7260563e-01 -1.8614262e-03 
3.0229130e-01 2.7194637e-01 -3.6236669e-03 
3.0267072e-01 2.7229264e-01 -7.1062385e-03 
3.0280131e-01 2.7246070e-01 -3.6167586e-03 
3.0102897e-01 2.7066070e-01 -5.2736318e-03 
3.0101407e-01 2.7067417e-01 -2.2237769e-03 
3.0114037e-01 2.7075908e-01 -6.6592125e-03 
3.0473998e-01 2.7435854e-01 -8.6318916e-03 
3.0117884e-01 2.7084136e-01 -2.3532603e-03 
3.0282474e-01 2.7246284e-01 -5.6411657e-03 
3.0282652e-01 2.7244776e-01 -7.2441148e-03 
2.9979962e-01 2.6944065e-01 -3.5777045e-03 
3.0101153e-01 2.7062619e-01 -6.8150093e-03 
2.9960272e-01 2.6926091e-01 -1.7879788e-03 
2.9937482e-01 2.6897758e-01 -7.1026133e-03 
2.9997596e-01 2.6961693e-01 -3.8207523e-03 
2.9852843e-01 2.6814690e-01 -5.2519026e-03 
2.9851496e-01 2.6816297e-01 -2.1731171e-03 
2.9781142e-01 2.6741195e-01 -6.6554905e-03 
3.0110443e-01 2.7069929e-01 -8.6186063e-03 
2.9729286e-01 2.6692230e-01 -3.5341841e-03 
2.9781634e-01 2.6746139e-01 -2.2919679e-03 
2.9926234e-01 2.6886252e-01 -7.2195362e-03 
2.9887125e-01 2.6848343e-01 -5.8844364e-03 
2.9758686e-01 2.6718235e-01 -6.7978953e-03 
2.9601425e-01 2.6562080e-01 -5.2310252e-03 
2.9599962e-01 2.6563662e-01 -2.1214900e-03 
2.9620779e-01 2.6584944e-01 -1.7122523e-03 
2.9600847e-01 2.6559377e-01 -7.0969402e-03 
2.9658192e-01 2.6620379e-01 -3.9442764e-03 
2.9476997e-01 2.6438785e-01 -3.4894536e-03 
2.9441246e-01 2.6399586e-01 -6.6499743e-03 
2.9431859e-01 2.6393104e-01 -3.7791028e-03 
2.9747680e-01 2.6705164e-01 -8.6029116e-03 
2.9438400e-01 2.6401350e-01 -2.2302601e-03 
2.9573679e-01 2.6531851e-01 -7.1427533e-03 
2.9348397e-01 2.6307926e-01 -5.2068033e-03 
2.9346874e-01 2.6309407e-01 -2.0687608e-03 
2.9413301e-01 2.6371166e-01 -6.7847376e-03 
2.9527020e-01 2.6486242e-01 -5.9794630e-03 
2.9274139e-01 2.6236859e-01 -1.6369494e-03 
2.9223219e-01 2.6183903e-01 -3.4425673e-03 
2.9256910e-01 2.6213878e-01 -7.0898244e-03 
2.9306307e-01 2.6266971e-01 -3.9330190e-03 
2.9093727e-01 2.6052219e-01 -5.1843678e-03 
2.9092416e-01 2.6053968e-01 -2.0167960e-03 
2.9093629e-01 2.6050642e-01 -6.6420748e-03 
2.9385513e-01 2.6341140e-01 -8.5861217e-03 
2.9087928e-01 2.6049542e-01 -2.1684892e-03 
2.9219502e-01 2.6176047e-01 -7.1152630e-03 
2.8967822e-01 2.5927648e-01 -3.3976836e-03 
2.9063290e-01 2.6019758e-01 -6.7670429e-03 
2.9174075e-01 2.6131597e-01 -6.1176075e-03 
2.8911886e-01 2.5870484e-01 -4.5294659e-03 
2.8920132e-01 2.5881702e-01 -1.5587980e-03 
2.8905374e-01 2.5861049e-01 -7.0798798e-03 
2.8837553e-01 2.5795323e-01 -5.1614288e-03 
2.8943059e-01 2.5902340e-01 -3.9915135e-03 
2.8804946e-01 2.5765768e-01 -1.8284796e-03 
2.8738534e-01 2.5694361e-01 -6.6333753e-03 
2.8710744e-01 2.5669906e-01 -3.3514537e-03 
2.9024437e-01 2.5978625e-01 -8.5667493e-03 
2.8731248e-01 2.5691643e-01 -2.2918168e-03 
2.8853366e-01 2.5808740e-01 -7.0480388e-03 
2.8720045e-01 2.5675303e-01 -6.7707971e-03 
2.8832889e-01 2.5788912e-01 -6.4258128e-03 
2.8580543e-01 2.5537667e-01 -5.1264041e-03 
2.8579199e-01 2.5539389e-01 -1.9153286e-03 
2.8558597e-01 2.5519195e-01 -1.4806883e-03 
2.8547761e-01 2.5502458e-01 -7.0668417e-03 
2.8453937e-01 2.5412461e-01 -3.3061912e-03 
2.8509936e-01 2.5467968e-01 -3.9928472e-03 
2.8378490e-01 2.5333500e-01 -6.6227624e-03 
2.8664637e-01 2.5617737e-01 -8.5440418e-03 
2.8324577e-01 2.5281036e-01 -5.0837691e-03 
2.8323382e-01 2.5282925e-01 -1.8714902e-03 
2.8369462e-01 2.5329208e-01 -2.0151394e-03 
2.8473592e-01 2.5428647e-01 -6.4065875e-03 
2.8415191e-01 2.5369412e-01 -7.0370287e-03 
2.8298467e-01 2.5252855e-01 -6.7402730e-03 
2.8198865e-01 2.5156817e-01 -3.2622407e-03 
2.8198719e-01 2.5158578e-01 -1.4012968e-03 
2.8190863e-01 2.5144798e-01 -7.0567131e-03 
2.8174415e-01 2.5132516e-01 -3.3114613e-03 
2.8070512e-01 2.5026536e-01 -5.0395811e-03 
2.8054753e-01 2.5013906e-01 -1.6782354e-03 
2.8024375e-01 2.4978656e-01 -6.6107474e-03 
2.8305656e-01 2.5257963e-01 -8.5206442e-03 
2.8012234e-01 2.4971502e-01 -1.9199750e-03 
2.7945563e-01 2.4903160e-01 -3.2169095e-03 
2.7997237e-01 2.4951001e-01 -6.7450702e-03 
2.8084707e-01 2.5040135e-01 -5.4746228e-03 
2.8114218e-01 2.5067672e-01 -7.3207715e-03 
2.7970266e-01 2.4924016e-01 -6.7290128e-03 
2.7844200e-01 2.4803634e-01 -1.3262760e-03 
2.7818012e-01 2.4773769e-01 -4.9947174e-03 
2.7816924e-01 2.4775729e-01 -1.7856455e-03 
2.7839848e-01 2.4793082e-01 -7.0433076e-03 
2.7820155e-01 2.4777904e-01 -3.1811807e-03 
2.7694088e-01 2.4651548e-01 -3.1731522e-03 
2.7676111e-01 2.4629895e-01 -6.5948702e-03 
2.7947709e-01 2.4899511e-01 -8.5001839e-03 
2.7660528e-01 2.4619545e-01 -1.8283031e-03 
2.7594507e-01 2.4553433e-01 -1.5576332e-03 
2.7567628e-01 2.4523257e-01 -4.9485564e-03 
2.7649409e-01 2.4602616e-01 -6.7350194e-03 
2.7756798e-01 2.4709715e-01 -7.2998451e-03 
2.7757397e-01 2.4711311e-01 -6.3655647e-03 
2.7495155e-01 2.4454392e-01 -1.2528987e-03 
2.7623415e-01 2.4578942e-01 -4.7537042e-03 
2.7494565e-01 2.4447542e-01 -7.0276167e-03 
2.7444631e-01 2.4401885e-01 -3.1286250e-03 
2.7563521e-01 2.4516697e-01 -6.6989339e-03 
2.7471435e-01 2.4429114e-01 -3.0552852e-03 
2.7318913e-01 2.4274379e-01 -4.9037319e-03 
2.7333471e-01 2.4287203e-01 -6.5789400e-03 
2.7590185e-01 2.4541456e-01 -8.4723523e-03 
2.7314243e-01 2.4273308e-01 -1.7395285e-03 
2.7271983e-01 2.4230900e-01 -1.4629436e-03 
2.7307335e-01 2.4260485e-01 -6.7237741e-03 
2.7196613e-01 2.4154076e-01 -3.0857369e-03 
2.7399999e-01 2.4352393e-01 -7.2775185e-03 
2.7400485e-01 2.4353911e-01 -6.3440409e-03 
2.7151406e-01 2.4110898e-01 -1.1810601e-03 
2.7154952e-01 2.4108042e-01 -7.0101493e-03 
2.7071863e-01 2.4027631e-01 -4.8565231e-03 
2.7070913e-01 2.4029684e-01 -1.6610472e-03 
2.7208859e-01 2.4164739e-01 -4.4514704e-03 
2.7207911e-01 2.4161044e-01 -6.6676773e-03 
2.7128118e-01 2.4086094e-01 -2.9338177e-03 
2.7020031e-01 2.3977651e-01 -3.0382250e-03 
2.6996601e-01 2.3950614e-01 -6.5601892e-03 
2.6950601e-01 2.3908280e-01 -3.0434260e-03 
2.7233857e-01 2.4184832e-01 -8.4436843e-03 
2.6942867e-01 2.3902427e-01 -1.1988675e-03 
2.6973379e-01 2.3932765e-01 -1.6542496e-03 
2.6970986e-01 2.3924349e-01 -6.7111515e-03 
2.7044657e-01 2.3997216e-01 -7.2523430e-03 
2.7045003e-01 2.3998669e-01 -6.3210912e-03 
2.6826856e-01 2.3783106e-01 -4.8091626e-03 
2.6825643e-01 2.3784870e-01 -1.6217610e-03 
2.6816726e-01 2.3773776e-01 -3.8457953e-03 
2.6812857e-01 2.3772891e-01 -1.1136285e-03 
2.6819918e-01 2.3776534e-01 -4.2900802e-03 
2.6821220e-01 2.3774613e-01 -6.9889729e-03 
2.6854393e-01 2.3810881e-01 -4.4347909e-03 
2.6853710e-01 2.3807302e-01 -6.6344794e-03 
2.6790321e-01 2.3748867e-01 -2.8189039e-03 
2.6706517e-01 2.3664710e-01 -2.9990086e-03 
2.6698697e-01 2.3658800e-01 -1.1606240e-03 
2.6665324e-01 2.3619905e-01 -6.5358742e-03 
2.6607528e-01 2.3567161e-01 -1.7056973e-03 
2.6637545e-01 2.3597758e-01 -1.5704778e-03 
2.6878971e-01 2.3830307e-01 -8.4126880e-03 
2.6606414e-01 2.3564826e-01 -2.9858311e-03 
2.6583698e-01 2.3540397e-01 -4.7610160e-03 
2.6640484e-01 2.3594499e-01 -6.6995244e-03 
2.6690736e-01 2.3644023e-01 -7.2254539e-03 
2.6690966e-01 2.3645405e-01 -6.2964456e-03 
2.6464400e-01 2.3423254e-01 -2.9582714e-03 
2.6479775e-01 2.3440771e-01 -1.0468999e-03 
2.6492587e-01 2.3446850e-01 -6.9660535e-03 
2.6457608e-01 2.3417166e-01 -2.7009991e-03 
2.6501337e-01 2.3458548e-01 -4.4206972e-03 
2.6500872e-01 2.3455285e-01 -6.6029020e-03 
2.6342559e-01 2.3299997e-01 -4.7147218e-03 
2.6354957e-01 2.3314124e-01 -3.0820521e-03 
2.6341331e-01 2.3302008e-01 -1.5460859e-03 
2.6339439e-01 2.3294860e-01 -6.5137595e-03 
2.6307026e-01 2.3268187e-01 -1.4900136e-03 
2.6525620e-01 2.3477721e-01 -8.3788643e-03 
2.6315197e-01 2.3270056e-01 -6.6827917e-03 
2.6224050e-01 2.3183782e-01 -2.9151456e-03 
2.6216266e-01 2.3177902e-01 -1.0785819e-03 
2.6163697e-01 2.3121963e-01 -4.3667601e-03 
2.6169804e-01 2.3124982e-01 -6.9416002e-03 
2.6151624e-01 2.3113757e-01 -9.8288851e-04 
2.6338357e-01 2.3292547e-01 -7.1962406e-03 
2.6338479e-01 2.3293835e-01 -6.2693185e-03 
2.6124239e-01 2.3084198e-01 -3.0359968e-03 
2.6115260e-01 2.3074296e-01 -4.0055877e-03 
2.6102975e-01 2.3061401e-01 -4.6674018e-03 
2.6101878e-01 2.3063578e-01 -1.5075535e-03 
2.6129887e-01 2.3090750e-01 -2.5901070e-03 
2.6149535e-01 2.3108052e-01 -4.4013700e-03 
2.6149270e-01 2.3104915e-01 -6.5678796e-03 
2.6019055e-01 2.2975662e-01 -6.4878059e-03 
2.5985438e-01 2.2946341e-01 -2.8739709e-03 
2.5977752e-01 2.2940558e-01 -1.0404228e-03 
2.5981873e-01 2.2944611e-01 -1.4133293e-03 
2.5995117e-01 2.2951138e-01 -6.6693309e-03 
2.6173651e-01 2.3126808e-01 -8.3427532e-03 
2.5865233e-01 2.2824827e-01 -4.6202913e-03 
2.5864348e-01 2.2827186e-01 -1.4697715e-03 
2.5847611e-01 2.2808021e-01 -3.7846146e-03 
2.5852206e-01 2.2808805e-01 -6.9156592e-03 
2.5828505e-01 2.2792247e-01 -9.1723673e-04 
2.5987151e-01 2.2942623e-01 -7.1649463e-03 
2.5987196e-01 2.2943845e-01 -6.2404699e-03 
2.5748616e-01 2.2710726e-01 -2.8355718e-03 