# vtk DataFile Version 4.0
vtk output
ASCII
DATASET UNSTRUCTURED_GRID
POINTS 6166 float
-4.3633327e-01 9.6409470e-01 4.4200001e+01 
-4.3633261e-01 9.6409082e-01 4.4079685e+01 
-3.2145375e-01 9.1276109e-01 4.4200001e+01 
-3.8566181e-01 8.4097892e-01 4.4200001e+01 
-3.3069235e-01 9.1895354e-01 4.4019413e+01 
-3.8473952e-01 8.3919770e-01 4.4024357e+01 
-4.3633196e-01 9.6408689e-01 4.3958702e+01 
-2.1293370e-01 8.4677851e-01 4.4200001e+01 
-2.9042658e-01 7.3813015e-01 4.4200001e+01 
-2.1019450e-01 8.4669626e-01 4.4077393e+01 
-2.8909999e-01 7.3605996e-01 4.4073399e+01 
-3.2963324e-01 9.1929907e-01 4.3898094e+01 
-3.8679782e-01 8.4179753e-01 4.3889645e+01 
-2.0740938e-01 8.4661204e-01 4.3952713e+01 
-4.3633130e-01 9.6408290e-01 4.3837040e+01 
-1.1677200e-01 7.7521002e-01 4.4200001e+01 
-2.8775173e-01 7.3395580e-01 4.3944717e+01 
-1.9365783e-01 6.6203654e-01 4.4200001e+01 
-1.1309985e-01 7.7540898e-01 4.4012005e+01 
-1.9181472e-01 6.5888047e-01 4.4006447e+01 
-3.2856464e-01 9.1964108e-01 4.3776085e+01 
-3.8823184e-01 8.4352189e-01 4.3765770e+01 
-2.0457739e-01 8.4652513e-01 4.3825886e+01 
-2.8638119e-01 7.3181647e-01 4.3813885e+01 
-4.3633065e-01 9.6407896e-01 4.3714680e+01 
-1.0911675e-01 7.7426714e-01 4.3886200e+01 
-2.1001574e-02 6.8269837e-01 4.4200001e+01 
-1.8902887e-01 6.5566909e-01 4.3876659e+01 
-7.8887597e-02 5.9015810e-01 4.4200001e+01 
-3.2748649e-01 9.1997939e-01 4.3653378e+01 
-3.9889076e-01 8.5876143e-01 4.3651733e+01 
-2.0169757e-01 8.4643483e-01 4.3696846e+01 
-7.2496021e-03 6.7325598e-01 4.3947758e+01 
-1.0504345e-01 7.7307969e-01 4.3758209e+01 
-2.8498772e-01 7.2964084e-01 4.3680840e+01 
-6.3224643e-02 5.7783771e-01 4.3940754e+01 
3.5808440e-02 6.2679136e-01 4.4056572e+01 
-1.8616955e-01 6.5238589e-01 4.3744686e+01 
-4.3632996e-01 9.6407503e-01 4.3591618e+01 
-9.8678423e-03 5.4892725e-01 4.4055367e+01 
-1.8652271e-02 6.8798620e-01 4.3834026e+01 
-7.9845116e-02 5.8636194e-01 4.3823372e+01 
8.7777540e-02 5.7885915e-01 4.4200001e+01 
5.3622175e-02 5.1732427e-01 4.4200001e+01 
-3.2639861e-01 9.2031354e-01 4.3529953e+01 
-3.9894739e-01 8.5844576e-01 4.3528313e+01 
-1.9876897e-01 8.4634024e-01 4.3565521e+01 
-1.0087753e-01 7.7184403e-01 4.3627972e+01 
-2.8357074e-01 7.2742778e-01 4.3545506e+01 
-1.8323407e-01 6.4902818e-01 4.3610458e+01 
-4.3632931e-01 9.6407109e-01 4.3467831e+01 
3.1033519e-03 6.6751039e-01 4.3691772e+01 
-5.3600248e-02 5.6906003e-01 4.3676846e+01 
1.2436585e-01 5.5082864e-01 4.3886215e+01 
1.7079005e-01 5.1095647e-01 4.4054855e+01 
1.4951277e-01 4.6697062e-01 4.4053665e+01 
1.0028158e-01 4.8915190e-01 4.3877911e+01 
-4.0513036e-01 8.6722642e-01 4.3405304e+01 
-3.2530096e-01 9.2064321e-01 4.3405800e+01 
-9.6616447e-02 7.7055699e-01 4.3495411e+01 
-8.4563000e-03 6.8258613e-01 4.3574005e+01 
-1.9579062e-01 8.4624058e-01 4.3431831e+01 
2.1753120e-01 4.7335833e-01 4.4200001e+01 
2.0360756e-01 4.4289169e-01 4.4200001e+01 
-1.8021962e-01 6.4559317e-01 4.3473904e+01 
-7.0636064e-02 5.7773441e-01 4.3555408e+01 
-2.8212959e-01 7.2517604e-01 4.3407806e+01 
-4.3632865e-01 9.6406716e-01 4.3343307e+01 
1.3810426e-01 5.4143524e-01 4.3628246e+01 
-3.2419339e-01 9.2096806e-01 4.3280907e+01 
-3.9903235e-01 8.5775709e-01 4.3279266e+01 
-9.2257597e-02 7.6921552e-01 4.3360443e+01 
1.1508528e-01 4.7804743e-01 4.3612068e+01 
-1.9276154e-01 8.4613472e-01 4.3295704e+01 
1.4013666e-02 6.6131532e-01 4.3426643e+01 
-1.7712323e-01 6.4207786e-01 4.3334946e+01 
-2.8066361e-01 7.2288430e-01 4.3267666e+01 
-4.3382257e-02 5.5983055e-01 4.3403778e+01 
-4.3632799e-01 9.6406323e-01 4.3218033e+01 
3.7877345e-01 3.8273901e-01 4.4200001e+01 
3.9076596e-01 3.7443376e-01 4.3993755e+01 
-3.2307580e-01 9.2128778e-01 4.3155251e+01 
-3.9906058e-01 8.5738426e-01 4.3153610e+01 
-8.7798268e-02 7.6781619e-01 4.3222996e+01 
1.9689407e-02 6.5803534e-01 4.3290459e+01 
-6.0862999e-02 5.6866169e-01 4.3278019e+01 
-1.8968078e-01 8.4602165e-01 4.3157055e+01 
-1.7394182e-01 6.3847917e-01 4.3193501e+01 
-4.3632734e-01 9.6405929e-01 4.3091995e+01 
4.0275589e-01 3.6612594e-01 4.3787510e+01 
1.2304078e-01 5.5709994e-01 4.3330139e+01 
-2.7917209e-01 7.2055119e-01 4.3125000e+01 
2.5336364e-01 4.4907436e-01 4.3468094e+01 
2.3670304e-01 4.1684708e-01 4.3469433e+01 
1.3086085e-01 4.6634668e-01 4.3336948e+01 
-3.8351217e-01 8.3473074e-01 4.3036392e+01 
-3.2194808e-01 9.2160189e-01 4.3028820e+01 
2.5518833e-02 6.5462554e-01 4.3151749e+01 
-8.3235659e-02 7.6635528e-01 4.3082981e+01 
4.1474071e-01 3.5781288e-01 4.3581264e+01 
-1.8654740e-01 8.4590012e-01 4.3015797e+01 
-3.2522827e-02 5.5011308e-01 4.3120937e+01 
-1.7067213e-01 6.3479382e-01 4.3049488e+01 
-4.3632668e-01 9.6405542e-01 4.2965172e+01 
-2.7765438e-01 7.1817529e-01 4.2979721e+01 
2.6620242e-01 4.4011977e-01 4.3261948e+01 
1.3584816e-02 6.7044950e-01 4.3025066e+01 
-3.2081014e-01 9.2191011e-01 4.2901604e+01 
-3.8160574e-01 8.3169121e-01 4.2902863e+01 
-7.8566879e-02 7.6482886e-01 4.2940315e+01 
-5.0480481e-02 5.5910730e-01 4.2990566e+01 
4.2671782e-01 3.4949207e-01 4.3375019e+01 
1.6821145e-01 5.2049083e-01 4.3083881e+01 
-1.8336046e-01 8.4576881e-01 4.2871841e+01 
-4.3632606e-01 9.6405160e-01 4.2837555e+01 
-1.6731077e-01 6.3101834e-01 4.2902817e+01 
1.4768846e-01 4.5400122e-01 4.3051926e+01 
-2.7610970e-01 7.1575516e-01 4.2831745e+01 
-3.1966189e-01 9.2221189e-01 4.2773579e+01 
-3.8560396e-01 8.3684862e-01 4.2767078e+01 
3.7660085e-02 6.4738947e-01 4.2866421e+01 
-7.3788933e-02 7.6323271e-01 4.2794899e+01 
4.3868470e-01 3.4116083e-01 4.3168777e+01 
-4.3632543e-01 9.6404779e-01 4.2709122e+01 
-2.0968946e-02 5.3986710e-01 4.2827656e+01 
-1.8011902e-01 8.4562629e-01 4.2725094e+01 
-1.6385415e-01 6.2714905e-01 4.2753403e+01 
-2.7453732e-01 7.1328926e-01 4.2680973e+01 
-3.1850323e-01 9.2250693e-01 4.2644733e+01 
-3.9907700e-01 8.5570478e-01 4.2643101e+01 
2.5504474e-02 6.6361672e-01 4.2734810e+01 
1.8471870e-01 5.0880390e-01 4.2796177e+01 
-6.8898737e-02 7.6156229e-01 4.2646645e+01 
-3.9438177e-02 5.4903054e-01 4.2692345e+01 
-4.3632481e-01 9.6404403e-01 4.2579861e+01 
4.5063871e-01 3.3281663e-01 4.2962532e+01 
1.6565691e-01 4.4095638e-01 4.2756321e+01 
-1.7682223e-01 8.4547096e-01 4.2575459e+01 
-1.6029853e-01 6.2318206e-01 4.2601143e+01 
-4.0415615e-01 8.6278629e-01 4.2516582e+01 
-3.1733403e-01 9.2279470e-01 4.2515053e+01 
-2.7293649e-01 7.1077597e-01 4.2527313e+01 
5.0482783e-02 6.3954860e-01 4.2569923e+01 
-4.3632418e-01 9.6404034e-01 4.2449757e+01 
-6.3893095e-02 7.5981271e-01 4.2495445e+01 
-8.6617703e-03 5.2904755e-01 4.2523201e+01 
-1.7346917e-01 8.4530097e-01 4.2422829e+01 
-1.5663996e-01 6.1911333e-01 4.2445942e+01 
3.0435190e-01 4.1341871e-01 4.2643494e+01 
4.6257737e-01 3.2445681e-01 4.2756287e+01 
-3.1615424e-01 9.2307472e-01 4.2384518e+01 
-3.9902648e-01 8.5475212e-01 4.2382885e+01 
-2.7130640e-01 7.0821363e-01 4.2370659e+01 
3.8079392e-02 6.5619886e-01 4.2433029e+01 
2.0230262e-01 4.9620378e-01 4.2497147e+01 
-4.3632355e-01 9.6403670e-01 4.2318787e+01 
-5.8768708e-02 7.5797862e-01 4.2341198e+01 
-2.7680276e-02 5.3838593e-01 4.2382599e+01 
1.8486446e-01 4.2715022e-01 4.2449394e+01 
-3.8436696e-01 8.3356136e-01 4.2264896e+01 
8.9545198e-02 5.3233254e-01 4.2382050e+01 
-3.3225983e-01 9.3122375e-01 4.2255634e+01 
-1.7005907e-01 8.4511453e-01 4.2267101e+01 
-1.5287429e-01 6.1493850e-01 4.2287693e+01 
4.7449806e-01 3.1607881e-01 4.2550037e+01 
-2.6964626e-01 7.0560038e-01 4.2210907e+01 
-4.3632296e-01 9.6403313e-01 4.2186939e+01 
6.4036883e-02 6.3103610e-01 4.2261456e+01 
-5.3522192e-02 7.5605446e-01 4.2183796e+01 
-3.7873057e-01 8.2541841e-01 4.2124020e+01 
-3.1376252e-01 9.2360973e-01 4.2120819e+01 
4.4639236e-03 5.1760370e-01 4.2206776e+01 
-1.6659111e-01 8.4490943e-01 4.2108162e+01 
-1.4899719e-01 6.1065292e-01 4.2126286e+01 
-4.3632239e-01 9.6402961e-01 4.2054195e+01 
4.8639825e-01 3.0768004e-01 4.2343792e+01 
-2.6795524e-01 7.0293444e-01 4.2047943e+01 
2.4746621e-01 4.6040925e-01 4.2191032e+01 
7.1105182e-02 6.2650448e-01 4.2102463e+01 
-3.1255043e-01 9.2386365e-01 4.1987617e+01 
-4.8150036e-02 7.5403398e-01 4.2023121e+01 
-1.5144684e-02 5.2712250e-01 4.2060505e+01 
-3.7995064e-01 8.2661813e-01 4.1980038e+01 
2.0541981e-01 4.1251117e-01 4.2130333e+01 
-1.6306458e-01 8.4468329e-01 4.1945896e+01 
-4.3632182e-01 9.6402621e-01 4.1920536e+01 
-1.4500406e-01 6.0625184e-01 4.1961609e+01 
1.3375351e-01 5.6370503e-01 4.1969833e+01 
-2.6623246e-01 7.0021385e-01 4.1881653e+01 
-3.1132740e-01 9.2410773e-01 4.1853493e+01 
-3.9880505e-01 8.5261923e-01 4.1851868e+01 
4.9827534e-01 2.9925787e-01 4.2137547e+01 
3.4194937e-01 3.8685825e-01 4.2025021e+01 
-4.2648647e-02 7.5191063e-01 4.1859051e+01 
-2.5401810e-01 7.9503769e-01 4.1808533e+01 
1.8480448e-02 5.0547802e-01 4.1877510e+01 
-4.3632126e-01 9.6402287e-01 4.1785946e+01 
-1.5947884e-01 8.4443361e-01 4.1780174e+01 
-1.4089009e-01 6.0172999e-01 4.1793541e+01 
-3.1009343e-01 9.2434150e-01 4.1718426e+01 
-4.0306881e-01 8.5845691e-01 4.1716179e+01 
8.5861288e-02 6.1683756e-01 4.1774368e+01 
-2.6447710e-01 6.9743657e-01 4.1711910e+01 
3.0427080e-01 4.1638452e-01 4.1839512e+01 
2.6751360e-01 3.7833902e-01 4.1830902e+01 
5.1012677e-01 2.9080975e-01 4.1931297e+01 
-3.7014309e-02 7.4967718e-01 4.1691463e+01 
-4.3632072e-01 9.6401966e-01 4.1650398e+01 
2.5847588e-02 4.9913955e-01 4.1707767e+01 
-1.5583332e-01 8.4415752e-01 4.1610870e+01 
-3.8322043e-01 8.2981020e-01 4.1595791e+01 
-3.0884841e-01 9.2456430e-01 4.1582397e+01 
-1.3665022e-01 5.9708190e-01 4.1621960e+01 
9.3565010e-02 6.1167872e-01 4.1605015e+01 
-2.6268822e-01 6.9460052e-01 4.1538593e+01 
-4.3632022e-01 9.6401656e-01 4.1513885e+01 
-3.1243213e-02 7.4732590e-01 4.1520226e+01 
2.7603787e-01 3.7115356e-01 4.1624012e+01 
2.8505871e-01 4.3281260e-01 4.1611507e+01 
5.2195001e-01 2.8233302e-01 4.1725052e+01 
3.3468332e-02 4.9260557e-01 4.1534447e+01 
-3.9853087e-01 8.5081697e-01 4.1443768e+01 
-3.2560509e-01 9.3245691e-01 4.1443577e+01 
-1.5212752e-01 8.4385180e-01 4.1437847e+01 
-1.3227913e-01 5.9230179e-01 4.1446728e+01 
-4.3631971e-01 9.6401358e-01 4.1376381e+01 
[...]
POINT_DATA 6166
FIELD FieldData 5
DISPLACEMENT 3 6166  float
3.7536606e-01 3.4275982e-01 -5.0464035e-03 
3.7321472e-01 3.4059069e-01 -5.0075492e-03 
3.7537926e-01 3.4280181e-01 -6.1764559e-03 
3.7543368e-01 3.4279469e-01 -3.7342906e-03 
3.7214792e-01 3.3954239e-01 -6.0645398e-03 
3.7229401e-01 3.3962864e-01 -3.6620628e-03 
3.7105149e-01 3.3840957e-01 -4.9684714e-03 
3.7540248e-01 3.4284431e-01 -6.9287731e-03 
3.7548172e-01 3.4283930e-01 -3.5846068e-03 
3.7320980e-01 3.4063470e-01 -6.9367588e-03 
3.7321901e-01 3.4055755e-01 -3.5302141e-03 
3.6997828e-01 3.3735541e-01 -6.0505718e-03 
3.6988401e-01 3.3719897e-01 -3.6286821e-03 
3.7097999e-01 3.3838767e-01 -6.9448454e-03 
3.6887613e-01 3.3621621e-01 -4.9291668e-03 
3.7543112e-01 3.4288412e-01 -7.3593520e-03 
3.7091914e-01 3.3823830e-01 -3.4749475e-03 
3.7551305e-01 3.4288001e-01 -3.9444836e-03 
3.7206891e-01 3.3949584e-01 -7.3680095e-03 
3.7205380e-01 3.3939156e-01 -3.8581837e-03 
3.6779639e-01 3.3515614e-01 -6.0364571e-03 
3.6766830e-01 3.3496511e-01 -3.5942069e-03 
3.6871189e-01 3.3610201e-01 -6.9530029e-03 
3.6858094e-01 3.3588043e-01 -3.4188000e-03 
3.6668846e-01 3.3401048e-01 -4.8896340e-03 
3.6981946e-01 3.3722901e-01 -7.3780855e-03 
3.7547269e-01 3.4292722e-01 -7.4055209e-03 
3.6973453e-01 3.3705294e-01 -3.8083417e-03 
3.7553892e-01 3.4292534e-01 -4.7023278e-03 
3.6560211e-01 3.3294430e-01 -6.0221800e-03 
3.6562178e-01 3.3290383e-01 -3.6414487e-03 
3.6640429e-01 3.3377659e-01 -6.9611990e-03 
3.7096596e-01 3.3838505e-01 -7.4000405e-03 
3.6753109e-01 3.3492297e-01 -7.3882346e-03 
3.6620319e-01 3.3348274e-01 -3.3617599e-03 
3.7090835e-01 3.3825797e-01 -4.6769460e-03 
3.7293339e-01 3.4036708e-01 -7.3680962e-03 
3.6737633e-01 3.3467507e-01 -3.7578875e-03 
3.6448827e-01 3.3179215e-01 -4.8498721e-03 
3.7296697e-01 3.4034458e-01 -5.1473859e-03 
3.6892518e-01 3.3632889e-01 -7.4248058e-03 
3.6880681e-01 3.3613542e-01 -4.4954359e-03 
3.7551919e-01 3.4297603e-01 -7.4802688e-03 
3.7556255e-01 3.4297603e-01 -5.7602869e-03 
3.6339518e-01 3.3071989e-01 -6.0077403e-03 
3.6341536e-01 3.3067915e-01 -3.5950488e-03 
3.6405599e-01 3.3141014e-01 -6.9694077e-03 
3.6520261e-01 3.3257651e-01 -7.3983865e-03 
3.6378470e-01 3.3104399e-01 -3.3037742e-03 
3.6497793e-01 3.3225676e-01 -3.7067367e-03 
3.6227533e-01 3.2956105e-01 -4.8098015e-03 
3.6639068e-01 3.3377391e-01 -7.3990952e-03 
3.6619318e-01 3.3350423e-01 -4.6059573e-03 
3.6991966e-01 3.3733380e-01 -7.5284806e-03 
3.7295228e-01 3.4039447e-01 -7.6948274e-03 
3.7296149e-01 3.4037393e-01 -6.5210909e-03 
3.6981294e-01 3.3718711e-01 -5.9834337e-03 
3.6121210e-01 3.2845905e-01 -3.6031480e-03 
3.6117542e-01 3.2848251e-01 -5.9930691e-03 
3.6283275e-01 3.3018839e-01 -7.4085230e-03 
3.6427769e-01 3.3164504e-01 -7.4259141e-03 
3.6166567e-01 3.2900140e-01 -6.9775968e-03 
3.7556338e-01 3.4303129e-01 -7.9002418e-03 
3.7558436e-01 3.4303218e-01 -7.1020611e-03 
3.6253816e-01 3.2979679e-01 -3.6550104e-03 
3.6401933e-01 3.3130881e-01 -4.4185407e-03 
3.6132419e-01 3.2856300e-01 -3.2449423e-03 
3.6004952e-01 3.2731703e-01 -4.7695837e-03 
3.6531040e-01 3.3268827e-01 -7.5217565e-03 
3.5894269e-01 3.2623228e-01 -5.9783268e-03 
3.5896403e-01 3.2619116e-01 -3.5012360e-03 
3.6042023e-01 3.2775733e-01 -7.4185659e-03 
3.6506364e-01 3.3240020e-01 -5.9625241e-03 
3.5923204e-01 3.2654917e-01 -6.9856676e-03 
3.6165258e-01 3.2899866e-01 -7.3969616e-03 
3.6005571e-01 3.2729390e-01 -3.6026658e-03 
3.5882038e-01 3.2603839e-01 -3.1850487e-03 
3.6131495e-01 3.2858643e-01 -4.5348243e-03 
3.5781059e-01 3.2505989e-01 -4.7290525e-03 
3.7559339e-01 3.4309337e-01 -9.1517009e-03 
3.7190849e-01 3.3937934e-01 -9.1500413e-03 
3.5669672e-01 3.2396859e-01 -5.9633879e-03 
3.5671878e-01 3.2392746e-01 -3.4537527e-03 
3.5796374e-01 3.2528213e-01 -7.4284533e-03 
3.5921931e-01 3.2654640e-01 -7.3952246e-03 
3.5906440e-01 3.2631370e-01 -4.3411660e-03 
3.5675368e-01 3.2405204e-01 -6.9935350e-03 
3.5752934e-01 3.2474685e-01 -3.5496999e-03 
3.5555828e-01 3.2278946e-01 -4.6882858e-03 
3.6822352e-01 3.3566537e-01 -9.1482867e-03 
3.5997349e-01 3.2730743e-01 -7.4381288e-03 
3.5627192e-01 3.2346904e-01 -3.1242419e-03 
3.6248493e-01 3.2984939e-01 -7.8675346e-03 
3.6253124e-01 3.2987389e-01 -6.9892025e-03 
3.6014920e-01 3.2744712e-01 -5.9452695e-03 
3.5463560e-01 3.2182431e-01 -3.2863477e-03 
3.5443738e-01 3.2169172e-01 -5.9480323e-03 
3.5674137e-01 3.2404938e-01 -7.3931543e-03 
3.5546184e-01 3.2276133e-01 -7.4382001e-03 
3.6453873e-01 3.3195165e-01 -9.1462722e-03 
3.5422933e-01 3.2150865e-01 -7.0014806e-03 
3.5626349e-01 3.2349461e-01 -4.4636917e-03 
3.5495746e-01 3.2215419e-01 -3.4958809e-03 
3.5329258e-01 3.2050559e-01 -4.6471828e-03 
3.5367736e-01 3.2085332e-01 -3.0624534e-03 
3.5880288e-01 3.2613847e-01 -7.8689428e-03 
3.5447001e-01 3.2176140e-01 -7.4236635e-03 
3.5216439e-01 3.1940138e-01 -5.9325267e-03 
3.5225159e-01 3.1942093e-01 -3.2229549e-03 
3.5291308e-01 3.2019347e-01 -7.4477065e-03 
3.5393140e-01 3.2113984e-01 -4.2631836e-03 
3.6085430e-01 3.2823780e-01 -9.1435649e-03 
3.5558704e-01 3.2288891e-01 -7.5070369e-03 
3.5165736e-01 3.1891751e-01 -7.0091221e-03 
3.5101303e-01 3.1820804e-01 -4.6057305e-03 
3.5233885e-01 3.1951466e-01 -3.4416474e-03 
3.5505959e-01 3.2231829e-01 -5.9327064e-03 
3.5103518e-01 3.1819007e-01 -2.9996808e-03 
3.4987748e-01 3.1709719e-01 -5.9167659e-03 
3.4982404e-01 3.1697485e-01 -3.2011319e-03 
3.5164586e-01 3.1891510e-01 -7.3873857e-03 
3.5031602e-01 3.1757718e-01 -7.4568857e-03 
3.5717019e-01 3.2452482e-01 -9.1407308e-03 
3.4871960e-01 3.1589690e-01 -4.5641782e-03 
3.5102776e-01 3.1821793e-01 -4.3924735e-03 
3.4903634e-01 3.1627727e-01 -7.0163850e-03 
3.4967172e-01 3.1682664e-01 -3.3864770e-03 
3.4834415e-01 3.1547782e-01 -2.9360487e-03 
3.4757686e-01 3.1477931e-01 -5.9005748e-03 
3.4760144e-01 3.1473765e-01 -3.2603089e-03 
3.4928757e-01 3.1653988e-01 -7.4193054e-03 
3.5045120e-01 3.1771410e-01 -7.4988646e-03 
3.4766915e-01 3.1491098e-01 -7.4655288e-03 
3.4860879e-01 3.1577599e-01 -4.1846433e-03 
3.4641245e-01 3.1357208e-01 -4.5225336e-03 
3.5348752e-01 3.2081401e-01 -9.1375532e-03 
3.4978345e-01 3.1700221e-01 -5.9246924e-03 
3.4636483e-01 3.1358665e-01 -7.0232893e-03 
3.4695524e-01 3.1408909e-01 -3.3310794e-03 
3.4533980e-01 3.1246004e-01 -3.2568532e-03 
3.4526229e-01 3.1244808e-01 -5.8844252e-03 
3.4560284e-01 3.1271514e-01 -2.8711753e-03 
3.4635460e-01 3.1358445e-01 -7.3787798e-03 
3.4409112e-01 3.1123322e-01 -4.4803778e-03 
3.4497130e-01 3.1219393e-01 -7.4736364e-03 
3.4559664e-01 3.1274578e-01 -4.3218415e-03 
3.4364131e-01 3.1084391e-01 -7.0297620e-03 
3.4418786e-01 3.1130064e-01 -3.2745088e-03 
3.4776363e-01 3.1501585e-01 -7.8704329e-03 
3.4980652e-01 3.1710550e-01 -9.1338195e-03 
3.4293327e-01 3.1010199e-01 -5.8680433e-03 
3.4295917e-01 3.1006008e-01 -3.1619137e-03 
3.4280947e-01 3.0990067e-01 -2.8051231e-03 
3.4390408e-01 3.1111744e-01 -7.4122115e-03 
3.4511751e-01 3.1234130e-01 -7.4896705e-03 
3.4175539e-01 3.0888024e-01 -4.4382294e-03 
3.4222010e-01 3.0942357e-01 -7.4815843e-03 
3.4308556e-01 3.1021178e-01 -4.1061449e-03 
3.4430960e-01 3.1148905e-01 -5.9219762e-03 
3.4086585e-01 3.0794847e-01 -3.0060492e-03 
3.4306064e-01 3.1023541e-01 -6.0889670e-03 
3.4063315e-01 3.0778143e-01 -5.6847017e-03 
3.4086385e-01 3.0804729e-01 -7.0357788e-03 
3.4136701e-01 3.0845916e-01 -3.2177619e-03 
3.4612700e-01 3.1339833e-01 -9.1287466e-03 
3.3996233e-01 3.0703273e-01 -2.7384483e-03 
3.3940560e-01 3.0651355e-01 -4.3957373e-03 
3.4085461e-01 3.0804545e-01 -7.3672961e-03 
3.3941439e-01 3.0659854e-01 -7.4886624e-03 
3.3835912e-01 3.0542308e-01 -2.9160464e-03 
3.3823264e-01 3.0536833e-01 -5.8336314e-03 
3.3995691e-01 3.0706546e-01 -4.2515877e-03 
3.3803111e-01 3.0519545e-01 -7.0416061e-03 
3.3849147e-01 3.0556312e-01 -3.1597924e-03 
3.3704105e-01 3.0413225e-01 -4.3527228e-03 
3.4244937e-01 3.0969450e-01 -9.1233058e-03 
3.3705989e-01 3.0410957e-01 -2.6705682e-03 
3.3967143e-01 3.0685896e-01 -7.5539150e-03 
3.3802274e-01 3.0519375e-01 -7.3603792e-03 
3.3586007e-01 3.0298024e-01 -5.8160494e-03 
3.3655214e-01 3.0371732e-01 -7.4947854e-03 
3.3734760e-01 3.0443344e-01 -4.0276716e-03 
3.3579394e-01 3.0284044e-01 -2.8706298e-03 
3.3862469e-01 3.0576497e-01 -5.9248465e-03 
3.3514112e-01 3.0228660e-01 -7.0464811e-03 
3.3466125e-01 3.0173638e-01 -4.3092277e-03 
3.3556005e-01 3.0261168e-01 -3.1018695e-03 
3.3568737e-01 3.0284208e-01 -7.3074400e-03 
3.3410060e-01 3.0113026e-01 -2.6018915e-03 
3.3347264e-01 3.0057758e-01 -5.7977876e-03 
3.3350062e-01 3.0053511e-01 -2.9611355e-03 
3.3877558e-01 3.0599576e-01 -9.1170911e-03 
3.3674207e-01 3.0391744e-01 -7.8644240e-03 
3.3363226e-01 3.0077869e-01 -7.4999081e-03 
3.3274117e-01 2.9980919e-01 -4.4933669e-03 
3.3409607e-01 3.0116525e-01 -4.1823401e-03 
3.3226719e-01 2.9932714e-01 -4.2656418e-03 
3.3219269e-01 2.9932019e-01 -7.0494600e-03 
3.3257148e-01 2.9960340e-01 -3.0441058e-03 
3.3107069e-01 2.9816094e-01 -5.7792603e-03 
3.3108532e-01 2.9810575e-01 -2.9480439e-03 
3.3218515e-01 2.9931837e-01 -7.3414291e-03 
3.3108306e-01 2.9809362e-01 -2.5326570e-03 
3.3342668e-01 3.0057564e-01 -7.6631051e-03 
3.3330163e-01 3.0041739e-01 -6.3247108e-03 
3.3510315e-01 3.0229810e-01 -9.1090249e-03 
3.3065340e-01 2.9778171e-01 -7.5036725e-03 
3.2985839e-01 2.9690379e-01 -4.2225379e-03 
3.3107936e-01 2.9813004e-01 -4.1488633e-03 
3.2918438e-01 2.9629412e-01 -7.0519107e-03 
3.2896048e-01 2.9596439e-01 -2.7526906e-03 
3.2865492e-01 2.9573107e-01 -5.7597063e-03 
3.2952321e-01 2.9653677e-01 -2.9844327e-03 
3.2917774e-01 2.9629272e-01 -7.3310286e-03 
3.2800630e-01 2.9499805e-01 -2.4619685e-03 
3.2743627e-01 2.9446667e-01 -4.1790432e-03 
3.2761279e-01 2.9472405e-01 -7.5063268e-03 
3.2962552e-01 2.9671851e-01 -6.2827179e-03 
3.2936585e-01 2.9648736e-01 -7.5410851e-03 
3.3143538e-01 2.9860702e-01 -9.0999575e-03 
3.2800263e-01 2.9503557e-01 -4.1153431e-03 
3.2625419e-01 2.9324421e-01 -2.8088563e-03 
3.2619080e-01 2.9324806e-01 -5.5575659e-03 
3.2611343e-01 2.9320708e-01 -7.0539275e-03 
3.2641479e-01 2.9341072e-01 -2.9251755e-03 
3.2499814e-01 2.9201493e-01 -4.1344780e-03 
3.2656920e-01 2.9366881e-01 -7.2801053e-03 
3.2486761e-01 2.9184186e-01 -2.3908552e-03 
3.2450959e-01 2.9160461e-01 -7.5078346e-03 
3.2377845e-01 2.9082823e-01 -5.7209707e-03 
3.2380775e-01 2.9078525e-01 -2.7572208e-03 
3.2486442e-01 2.9188073e-01 -4.0824218e-03 
3.2613310e-01 2.9320917e-01 -6.3608922e-03 
3.2777318e-01 2.9492319e-01 -9.0897549e-03 
3.2297924e-01 2.9005700e-01 -7.0546810e-03 
3.2553971e-01 2.9264271e-01 -7.6252175e-03 
3.2254460e-01 2.8954923e-01 -4.0887999e-03 
3.2324371e-01 2.9022312e-01 -2.8653420e-03 
3.2334656e-01 2.9042965e-01 -7.2585754e-03 
3.2131663e-01 2.8835523e-01 -5.7003405e-03 
3.2134652e-01 2.8831300e-01 -2.7052248e-03 
3.2166544e-01 2.8862345e-01 -2.3183837e-03 
3.2134134e-01 2.8842118e-01 -7.5081983e-03 
3.2166275e-01 2.8866380e-01 -4.0499028e-03 
3.2007587e-01 2.8706959e-01 -4.0439423e-03 
3.2262635e-01 2.8968209e-01 -6.2112254e-03 
3.2411709e-01 2.9124719e-01 -9.0776300e-03 
3.1977859e-01 2.8684211e-01 -7.0542344e-03 
3.2000780e-01 2.8697222e-01 -2.8048980e-03 
3.2199481e-01 2.8908119e-01 -7.6425807e-03 
3.1883991e-01 2.8586754e-01 -5.6791250e-03 
3.1887069e-01 2.8582594e-01 -2.6532807e-03 
3.1998149e-01 2.8704914e-01 -7.2429348e-03 
3.1839728e-01 2.8534105e-01 -2.2448301e-03 
3.1759220e-01 2.8457493e-01 -3.9994982e-03 
3.1810549e-01 2.8517196e-01 -7.5070965e-03 
3.1839514e-01 2.8538239e-01 -4.0179091e-03 
3.1634864e-01 2.8336647e-01 -5.6577059e-03 
3.1637946e-01 2.8332362e-01 -2.6002994e-03 
3.1650928e-01 2.8356057e-01 -7.0529878e-03 
3.2046765e-01 2.8757963e-01 -9.0637868e-03 
3.1670490e-01 2.8365627e-01 -2.7439387e-03 
3.1848815e-01 2.8552273e-01 -6.0562170e-03 
3.1847894e-01 2.8555050e-01 -7.6648332e-03 
3.1509286e-01 2.8206581e-01 -3.9532785e-03 
3.1656024e-01 2.8361410e-01 -7.2254403e-03 
3.1506118e-01 2.8199261e-01 -2.1709658e-03 
3.1480056e-01 2.8185520e-01 -7.5038509e-03 
3.1557319e-01 2.8255549e-01 -4.2236345e-03 
3.1384021e-01 2.8084981e-01 -5.6359302e-03 
3.1387275e-01 2.8080902e-01 -2.5492753e-03 
3.1316978e-01 2.8021038e-01 -7.0494674e-03 
3.1682414e-01 2.8391990e-01 -9.0512559e-03 
3.1257808e-01 2.7954406e-01 -3.9093955e-03 
3.1333402e-01 2.8027374e-01 -2.6824444e-03 
3.1490576e-01 2.8196326e-01 -7.6408619e-03 
3.1453389e-01 2.8155962e-01 -6.3019646e-03 
3.1312096e-01 2.8016278e-01 -7.2082579e-03 
3.1131771e-01 2.7832061e-01 -5.6148907e-03 
3.1134957e-01 2.7827916e-01 -2.4972004e-03 
3.1165662e-01 2.7857703e-01 -2.0948332e-03 
3.1142461e-01 2.7846929e-01 -7.4985577e-03 
3.1217739e-01 2.7915260e-01 -4.3485984e-03 
3.1004700e-01 2.7700591e-01 -3.8643824e-03 
3.0975980e-01 2.7679092e-01 -7.0440946e-03 
3.0969825e-01 2.7666283e-01 -4.1643651e-03 
3.1318825e-01 2.8027144e-01 -9.0365773e-03 
3.0989277e-01 2.7682298e-01 -2.6205203e-03 
3.1136492e-01 2.7840936e-01 -7.5636697e-03 
3.0877906e-01 2.7577579e-01 -5.5906214e-03 
3.0881059e-01 2.7573282e-01 -2.4441031e-03 
3.0965117e-01 2.7668354e-01 -7.1949665e-03 
3.1092837e-01 2.7794561e-01 -6.3982676e-03 
3.0817989e-01 2.7509165e-01 -2.0189870e-03 
3.0750084e-01 2.7445316e-01 -3.8171834e-03 
3.0797523e-01 2.7501193e-01 -7.4917874e-03 
3.0865109e-01 2.7561879e-01 -4.3377900e-03 
3.0622360e-01 2.7321529e-01 -5.5681122e-03 
3.0625761e-01 2.7317446e-01 -2.3916787e-03 
3.0627197e-01 2.7329767e-01 -7.0364489e-03 
3.0955830e-01 2.7663046e-01 -9.0207495e-03 
3.0637863e-01 2.7330175e-01 -2.5584491e-03 
3.0781367e-01 2.7484912e-01 -7.5365868e-03 
3.0493805e-01 2.7188662e-01 -3.7719146e-03 
3.0613866e-01 2.7316457e-01 -7.1775387e-03 
3.0739549e-01 2.7440852e-01 -6.5378635e-03 
3.0447015e-01 2.7144560e-01 -4.9168780e-03 
3.0462894e-01 2.7153516e-01 -1.9402729e-03 
3.0444923e-01 2.7148086e-01 -7.4822432e-03 
3.0365282e-01 2.7064255e-01 -5.5449698e-03 
3.0501288e-01 2.7197725e-01 -4.3969066e-03 
3.0338863e-01 2.7029896e-01 -2.2035318e-03 
3.0270866e-01 2.6973048e-01 -7.0280056e-03 
3.0235839e-01 2.6930484e-01 -3.7253078e-03 
3.0593854e-01 2.7300382e-01 -9.0025440e-03 
3.0281308e-01 2.6973671e-01 -2.6832102e-03 
3.0413702e-01 2.7116671e-01 -7.4695684e-03 
3.0268502e-01 2.6970690e-01 -7.1809734e-03 
3.0398437e-01 2.7100047e-01 -6.8490664e-03 
3.0107334e-01 2.6806161e-01 -5.5098496e-03 
3.0110753e-01 2.6801994e-01 -2.2891818e-03 
3.0100176e-01 2.6790446e-01 -1.8614909e-03 
3.0086103e-01 2.6789060e-01 -7.4697309e-03 
2.9978102e-01 2.6672587e-01 -3.6796490e-03 
3.0067128e-01 2.6763332e-01 -4.3987567e-03 
2.9909521e-01 2.6611686e-01 -7.0176208e-03 
3.0233079e-01 2.6939252e-01 -8.9808824e-03 
2.9850379e-01 2.6549011e-01 -5.4669390e-03 
2.9853925e-01 2.6545015e-01 -2.2447479e-03 
2.9917112e-01 2.6608780e-01 -2.4042344e-03 
3.0038166e-01 2.6739573e-01 -6.8306392e-03 
2.9974514e-01 2.6677305e-01 -7.4598170e-03 
2.9845673e-01 2.6547852e-01 -7.1509155e-03 
2.9722074e-01 2.6416489e-01 -3.6352100e-03 
2.9739070e-01 2.6429239e-01 -1.7814228e-03 
2.9727733e-01 2.6430729e-01 -7.4597942e-03 
2.9728165e-01 2.6422974e-01 -3.7124602e-03 
2.9595301e-01 2.6293969e-01 -5.4224040e-03 
2.9585940e-01 2.6276675e-01 -2.0516473e-03 
2.9554072e-01 2.6256311e-01 -7.0058252e-03 
2.9873076e-01 2.6579180e-01 -8.9585548e-03 
2.9558542e-01 2.6250297e-01 -2.3082553e-03 
2.9467815e-01 2.6162341e-01 -3.5894511e-03 
2.9542607e-01 2.6244891e-01 -7.1554370e-03 
2.9645461e-01 2.6345029e-01 -5.8925697e-03 
2.9675937e-01 2.6379612e-01 -7.7487356e-03 
2.9523528e-01 2.6225835e-01 -7.1469140e-03 
2.9383281e-01 2.6073661e-01 -1.7055745e-03 
2.9341778e-01 2.6040649e-01 -5.3773453e-03 
2.9345405e-01 2.6036751e-01 -2.1575675e-03 
2.9375216e-01 2.6078311e-01 -7.4466937e-03 
2.9372454e-01 2.6067337e-01 -3.5813299e-03 
2.9215339e-01 2.5910228e-01 -3.5452174e-03 
2.9204428e-01 2.5906968e-01 -6.9903624e-03 
2.9514033e-01 2.6220399e-01 -8.9390827e-03 
2.9205441e-01 2.5897512e-01 -2.2156376e-03 
2.9124323e-01 2.5815600e-01 -1.9299595e-03 
2.9090327e-01 2.5789538e-01 -5.3309682e-03 
2.9193076e-01 2.5895593e-01 -7.1456516e-03 
2.9317430e-01 2.6021326e-01 -7.7287755e-03 
2.9319859e-01 2.6021656e-01 -6.7912587e-03 
2.9032907e-01 2.5723732e-01 -1.6312894e-03 
2.9180661e-01 2.5879028e-01 -5.1668449e-03 
2.9028401e-01 2.5732011e-01 -7.4313534e-03 
2.8964841e-01 2.5660008e-01 -3.5002902e-03 
2.9115602e-01 2.5818199e-01 -7.1177986e-03 
2.9022211e-01 2.5717464e-01 -3.4545835e-03 
2.8840509e-01 2.5540045e-01 -5.2859546e-03 
2.8860378e-01 2.5563642e-01 -6.9746585e-03 
2.9155350e-01 2.5861916e-01 -8.9125773e-03 
2.8857705e-01 2.5550395e-01 -2.1258369e-03 
2.8800899e-01 2.5492683e-01 -1.8347722e-03 
2.8849265e-01 2.5552511e-01 -7.1346974e-03 
2.8715762e-01 2.5411624e-01 -3.4568910e-03 
2.8959450e-01 2.5663599e-01 -7.7074063e-03 
2.8961757e-01 2.5663856e-01 -6.7704059e-03 
2.8687778e-01 2.5379494e-01 -1.5583949e-03 
2.8687206e-01 2.5391692e-01 -7.4143400e-03 
2.8592357e-01 2.5292644e-01 -5.2384455e-03 
2.8596073e-01 2.5288892e-01 -2.0308762e-03 
2.8763822e-01 2.5462538e-01 -4.8627187e-03 
2.8758836e-01 2.5462127e-01 -7.0875580e-03 
2.8677323e-01 2.5373313e-01 -3.3320300e-03 
2.8553092e-01 2.5249377e-01 -3.4226044e-03 
2.8522024e-01 2.5226343e-01 -6.9562234e-03 
2.8468660e-01 2.5165242e-01 -3.4139710e-03 
2.8797755e-01 2.5504753e-01 -8.8851666e-03 
2.8473940e-01 2.5166333e-01 -1.5720025e-03 
2.8515315e-01 2.5208914e-01 -2.0393003e-03 
2.8511119e-01 2.5215346e-01 -7.1225292e-03 
2.8602833e-01 2.5307882e-01 -7.6832739e-03 
2.8604993e-01 2.5308076e-01 -6.7482158e-03 
2.8346199e-01 2.5047427e-01 -5.1907660e-03 
2.8349650e-01 2.5043422e-01 -1.9907730e-03 
2.8344366e-01 2.5043249e-01 -4.2301626e-03 
2.8347781e-01 2.5040680e-01 -1.4898697e-03 
2.8353065e-01 2.5052956e-01 -4.6820682e-03 
2.8351825e-01 2.5057361e-01 -7.3937634e-03 
2.8408059e-01 2.5108176e-01 -4.8464332e-03 
2.8403375e-01 2.5107852e-01 -7.0553105e-03 
2.8337854e-01 2.5034884e-01 -3.2156662e-03 
2.8223461e-01 2.4921018e-01 -3.3691211e-03 
2.8228560e-01 2.4921992e-01 -1.5326515e-03 
2.8189236e-01 2.4894835e-01 -6.9325445e-03 
2.8129473e-01 2.4824488e-01 -2.0737455e-03 
2.8177884e-01 2.4872872e-01 -1.9542861e-03 
2.8441513e-01 2.5149572e-01 -8.8555301e-03 
2.8137192e-01 2.4835141e-01 -3.3691581e-03 
2.8101856e-01 2.4803995e-01 -5.1425523e-03 
2.8178757e-01 2.4884386e-01 -7.1111224e-03 
2.8247538e-01 2.4954046e-01 -7.6574595e-03 
2.8249574e-01 2.4954174e-01 -6.7243944e-03 
2.7980155e-01 2.4678883e-01 -3.3277508e-03 
2.8013152e-01 2.4707648e-01 -1.4219603e-03 
2.8021511e-01 2.4728628e-01 -7.3714042e-03 
2.8003421e-01 2.4701893e-01 -3.0968806e-03 
2.8053588e-01 2.4755242e-01 -4.8325537e-03 
2.8049171e-01 2.4755214e-01 -7.0244367e-03 
2.7859470e-01 2.4562807e-01 -5.0959946e-03 
2.7883342e-01 2.4582997e-01 -3.4645977e-03 
2.7862862e-01 2.4559090e-01 -1.9133238e-03 
2.7861747e-01 2.4568935e-01 -6.9107986e-03 
2.7845713e-01 2.4542238e-01 -1.8724845e-03 
2.8086704e-01 2.4796234e-01 -8.8231135e-03 
2.7851555e-01 2.4558768e-01 -7.0949807e-03 
2.7738589e-01 2.4438667e-01 -3.2841216e-03 
2.7743557e-01 2.4439509e-01 -1.4488340e-03 
2.7693370e-01 2.4396791e-01 -4.7590765e-03 
2.7696964e-01 2.4405709e-01 -7.3474860e-03 
2.7683413e-01 2.4379683e-01 -1.3564961e-03 
2.7893683e-01 2.4601837e-01 -7.6293088e-03 
2.7895606e-01 2.4601874e-01 -6.6980664e-03 
2.7650341e-01 2.4351233e-01 -3.4170432e-03 
2.7635768e-01 2.4338944e-01 -4.3871161e-03 
2.7618617e-01 2.4323392e-01 -5.0483341e-03 
2.7622116e-01 2.4319862e-01 -1.8739067e-03 
2.7673906e-01 2.4374132e-01 -2.9847899e-03 
2.7700287e-01 2.4404034e-01 -4.8135212e-03 
2.7696112e-01 2.4404109e-01 -6.9903326e-03 
2.7539700e-01 2.4248776e-01 -6.8854042e-03 
2.7498716e-01 2.4200444e-01 -3.2423229e-03 
2.7503687e-01 2.4201301e-01 -1.4095447e-03 
2.7518776e-01 2.4217458e-01 -1.7944637e-03 
2.7529520e-01 2.4238634e-01 -7.0816963e-03 
2.7733183e-01 2.4444464e-01 -8.7884618e-03 
2.7379557e-01 2.4085957e-01 -5.0008637e-03 
2.7383232e-01 2.4082623e-01 -1.8352392e-03 
2.7370059e-01 2.4074560e-01 -4.1680327e-03 
2.7377525e-01 2.4088395e-01 -7.3220110e-03 
2.7358598e-01 2.4057110e-01 -1.2896094e-03 
2.7540910e-01 2.4251069e-01 -7.5991037e-03 
2.7542746e-01 2.4251045e-01 -6.6700424e-03 
2.7260584e-01 2.3964021e-01 -3.2031364e-03 