# vtk DataFile Version 4.0
vtk output
ASCII
DATASET UNSTRUCTURED_GRID
POINTS 6166 float
-4.3633327e-01 9.6409470e-01 4.4200001e+01 
-4.3633261e-01 9.6409082e-01 4.4079685e+01 
-3.2145375e-01 9.1276109e-01 4.4200001e+01 
-3.8566181e-01 8.4097892e-01 4.4200001e+01 
-3.3069235e-01 9.1895354e-01 4.4019413e+01 
-3.8473952e-01 8.3919770e-01 4.4024357e+01 
-4.3633196e-01 9.6408689e-01 4.3958702e+01 
-2.1293370e-01 8.4677851e-01 4.4200001e+01 
-2.9042658e-01 7.3813015e-01 4.4200001e+01 
-2.1019450e-01 8.4669626e-01 4.4077393e+01 
-2.8909999e-01 7.3605996e-01 4.4073399e+01 
-3.2963324e-01 9.1929907e-01 4.3898094e+01 
-3.8679782e-01 8.4179753e-01 4.3889645e+01 
-2.0740938e-01 8.4661204e-01 4.3952713e+01 
-4.3633130e-01 9.6408290e-01 4.3837040e+01 
-1.1677200e-01 7.7521002e-01 4.4200001e+01 
-2.8775173e-01 7.3395580e-01 4.3944717e+01 
-1.9365783e-01 6.6203654e-01 4.4200001e+01 
-1.1309985e-01 7.7540898e-01 4.4012005e+01 
-1.9181472e-01 6.5888047e-01 4.4006447e+01 
-3.2856464e-01 9.1964108e-01 4.3776085e+01 
-3.8823184e-01 8.4352189e-01 4.3765770e+01 
-2.0457739e-01 8.4652513e-01 4.3825886e+01 
-2.8638119e-01 7.3181647e-01 4.3813885e+01 
-4.3633065e-01 9.6407896e-01 4.3714680e+01 
-1.0911675e-01 7.7426714e-01 4.3886200e+01 
-2.1001574e-02 6.8269837e-01 4.4200001e+01 
-1.8902887e-01 6.5566909e-01 4.3876659e+01 
-7.8887597e-02 5.9015810e-01 4.4200001e+01 
-3.2748649e-01 9.1997939e-01 4.3653378e+01 
-3.9889076e-01 8.5876143e-01 4.3651733e+01 
-2.0169757e-01 8.4643483e-01 4.3696846e+01 
-7.2496021e-03 6.7325598e-01 4.3947758e+01 
-1.0504345e-01 7.7307969e-01 4.3758209e+01 
-2.8498772e-01 7.2964084e-01 4.3680840e+01 
-6.3224643e-02 5.7783771e-01 4.3940754e+01 
3.5808440e-02 6.2679136e-01 4.4056572e+01 
-1.8616955e-01 6.5238589e-01 4.3744686e+01 
-4.3632996e-01 9.6407503e-01 4.3591618e+01 
-9.8678423e-03 5.4892725e-01 4.4055367e+01 
-1.8652271e-02 6.8798620e-01 4.3834026e+01 
-7.9845116e-02 5.8636194e-01 4.3823372e+01 
8.7777540e-02 5.7885915e-01 4.4200001e+01 
5.3622175e-02 5.1732427e-01 4.4200001e+01 
-3.2639861e-01 9.2031354e-01 4.3529953e+01 
-3.9894739e-01 8.5844576e-01 4.3528313e+01 
-1.9876897e-01 8.4634024e-01 4.3565521e+01 
-1.0087753e-01 7.7184403e-01 4.3627972e+01 
-2.8357074e-01 7.2742778e-01 4.3545506e+01 
-1.8323407e-01 6.4902818e-01 4.3610458e+01 
-4.3632931e-01 9.6407109e-01 4.3467831e+01 
3.1033519e-03 6.6751039e-01 4.3691772e+01 
-5.3600248e-02 5.6906003e-01 4.3676846e+01 
1.2436585e-01 5.5082864e-01 4.3886215e+01 
1.7079005e-01 5.1095647e-01 4.4054855e+01 
1.4951277e-01 4.6697062e-01 4.4053665e+01 
1.0028158e-01 4.8915190e-01 4.3877911e+01 
-4.0513036e-01 8.6722642e-01 4.3405304e+01 
-3.2530096e-01 9.2064321e-01 4.3405800e+01 
-9.6616447e-02 7.7055699e-01 4.3495411e+01 
-8.4563000e-03 6.8258613e-01 4.3574005e+01 
-1.9579062e-01 8.4624058e-01 4.3431831e+01 
2.1753120e-01 4.7335833e-01 4.4200001e+01 
2.0360756e-01 4.4289169e-01 4.4200001e+01 
-1.8021962e-01 6.4559317e-01 4.3473904e+01 
-7.0636064e-02 5.7773441e-01 4.3555408e+01 
-2.8212959e-01 7.2517604e-01 4.3407806e+01 
-4.3632865e-01 9.6406716e-01 4.3343307e+01 
1.3810426e-01 5.4143524e-01 4.3628246e+01 
-3.2419339e-01 9.2096806e-01 4.3280907e+01 
-3.9903235e-01 8.5775709e-01 4.3279266e+01 
-9.2257597e-02 7.6921552e-01 4.3360443e+01 
1.1508528e-01 4.7804743e-01 4.3612068e+01 
-1.9276154e-01 8.4613472e-01 4.3295704e+01 
1.4013666e-02 6.6131532e-01 4.3426643e+01 
-1.7712323e-01 6.4207786e-01 4.3334946e+01 
-2.8066361e-01 7.2288430e-01 4.3267666e+01 
-4.3382257e-02 5.5983055e-01 4.3403778e+01 
-4.3632799e-01 9.6406323e-01 4.3218033e+01 
3.7877345e-01 3.8273901e-01 4.4200001e+01 
3.9076596e-01 3.7443376e-01 4.3993755e+01 
-3.2307580e-01 9.2128778e-01 4.3155251e+01 
-3.9906058e-01 8.5738426e-01 4.3153610e+01 
-8.7798268e-02 7.6781619e-01 4.3222996e+01 
1.9689407e-02 6.5803534e-01 4.3290459e+01 
-6.0862999e-02 5.6866169e-01 4.3278019e+01 
-1.8968078e-01 8.4602165e-01 4.3157055e+01 
-1.7394182e-01 6.3847917e-01 4.3193501e+01 
-4.3632734e-01 9.6405929e-01 4.3091995e+01 
4.0275589e-01 3.6612594e-01 4.3787510e+01 
1.2304078e-01 5.5709994e-01 4.3330139e+01 
-2.7917209e-01 7.2055119e-01 4.3125000e+01 
2.5336364e-01 4.4907436e-01 4.3468094e+01 
2.3670304e-01 4.1684708e-01 4.3469433e+01 
1.3086085e-01 4.6634668e-01 4.3336948e+01 
-3.8351217e-01 8.3473074e-01 4.3036392e+01 
-3.2194808e-01 9.2160189e-01 4.3028820e+01 
2.5518833e-02 6.5462554e-01 4.3151749e+01 
-8.3235659e-02 7.6635528e-01 4.3082981e+01 
4.1474071e-01 3.5781288e-01 4.3581264e+01 
-1.8654740e-01 8.4590012e-01 4.3015797e+01 
-3.2522827e-02 5.5011308e-01 4.3120937e+01 
-1.7067213e-01 6.3479382e-01 4.3049488e+01 
-4.3632668e-01 9.6405542e-01 4.2965172e+01 
-2.7765438e-01 7.1817529e-01 4.2979721e+01 
2.6620242e-01 4.4011977e-01 4.3261948e+01 
1.3584816e-02 6.7044950e-01 4.3025066e+01 
-3.2081014e-01 9.2191011e-01 4.2901604e+01 
-3.8160574e-01 8.3169121e-01 4.2902863e+01 
-7.8566879e-02 7.6482886e-01 4.2940315e+01 
-5.0480481e-02 5.5910730e-01 4.2990566e+01 
4.2671782e-01 3.4949207e-01 4.3375019e+01 
1.6821145e-01 5.2049083e-01 4.3083881e+01 
-1.8336046e-01 8.4576881e-01 4.2871841e+01 
-4.3632606e-01 9.6405160e-01 4.2837555e+01 
-1.6731077e-01 6.3101834e-01 4.2902817e+01 
1.4768846e-01 4.5400122e-01 4.3051926e+01 
-2.7610970e-01 7.1575516e-01 4.2831745e+01 
-3.1966189e-01 9.2221189e-01 4.2773579e+01 
-3.8560396e-01 8.3684862e-01 4.2767078e+01 
3.7660085e-02 6.4738947e-01 4.2866421e+01 
-7.3788933e-02 7.6323271e-01 4.2794899e+01 
4.3868470e-01 3.4116083e-01 4.3168777e+01 
-4.3632543e-01 9.6404779e-01 4.2709122e+01 
-2.0968946e-02 5.3986710e-01 4.2827656e+01 
-1.8011902e-01 8.4562629e-01 4.2725094e+01 
-1.6385415e-01 6.2714905e-01 4.2753403e+01 
-2.7453732e-01 7.1328926e-01 4.2680973e+01 
-3.1850323e-01 9.2250693e-01 4.2644733e+01 
-3.9907700e-01 8.5570478e-01 4.2643101e+01 
2.5504474e-02 6.6361672e-01 4.2734810e+01 
1.8471870e-01 5.0880390e-01 4.2796177e+01 
-6.8898737e-02 7.6156229e-01 4.2646645e+01 
-3.9438177e-02 5.4903054e-01 4.2692345e+01 
-4.3632481e-01 9.6404403e-01 4.2579861e+01 
4.5063871e-01 3.3281663e-01 4.2962532e+01 
1.6565691e-01 4.4095638e-01 4.2756321e+01 
-1.7682223e-01 8.4547096e-01 4.2575459e+01 
-1.6029853e-01 6.2318206e-01 4.2601143e+01 
-4.0415615e-01 8.6278629e-01 4.2516582e+01 
-3.1733403e-01 9.2279470e-01 4.2515053e+01 
-2.7293649e-01 7.1077597e-01 4.2527313e+01 
5.0482783e-02 6.3954860e-01 4.2569923e+01 
-4.3632418e-01 9.6404034e-01 4.2449757e+01 
-6.3893095e-02 7.5981271e-01 4.2495445e+01 
-8.6617703e-03 5.2904755e-01 4.2523201e+01 
-1.7346917e-01 8.4530097e-01 4.2422829e+01 
-1.5663996e-01 6.1911333e-01 4.2445942e+01 
3.0435190e-01 4.1341871e-01 4.2643494e+01 
4.6257737e-01 3.2445681e-01 4.2756287e+01 
-3.1615424e-01 9.2307472e-01 4.2384518e+01 
-3.9902648e-01 8.5475212e-01 4.2382885e+01 
-2.7130640e-01 7.0821363e-01 4.2370659e+01 
3.8079392e-02 6.5619886e-01 4.2433029e+01 
2.0230262e-01 4.9620378e-01 4.2497147e+01 
-4.3632355e-01 9.6403670e-01 4.2318787e+01 
-5.8768708e-02 7.5797862e-01 4.2341198e+01 
-2.7680276e-02 5.3838593e-01 4.2382599e+01 
1.8486446e-01 4.2715022e-01 4.2449394e+01 
-3.8436696e-01 8.3356136e-01 4.2264896e+01 
8.9545198e-02 5.3233254e-01 4.2382050e+01 
-3.3225983e-01 9.3122375e-01 4.2255634e+01 
-1.7005907e-01 8.4511453e-01 4.2267101e+01 
-1.5287429e-01 6.1493850e-01 4.2287693e+01 
4.7449806e-01 3.1607881e-01 4.2550037e+01 
-2.6964626e-01 7.0560038e-01 4.2210907e+01 
-4.3632296e-01 9.6403313e-01 4.2186939e+01 
6.4036883e-02 6.3103610e-01 4.2261456e+01 
-5.3522192e-02 7.5605446e-01 4.2183796e+01 
-3.7873057e-01 8.2541841e-01 4.2124020e+01 
-3.1376252e-01 9.2360973e-01 4.2120819e+01 
4.4639236e-03 5.1760370e-01 4.2206776e+01 
-1.6659111e-01 8.4490943e-01 4.2108162e+01 
-1.4899719e-01 6.1065292e-01 4.2126286e+01 
-4.3632239e-01 9.6402961e-01 4.2054195e+01 
4.8639825e-01 3.0768004e-01 4.2343792e+01 
-2.6795524e-01 7.0293444e-01 4.2047943e+01 
2.4746621e-01 4.6040925e-01 4.2191032e+01 
7.1105182e-02 6.2650448e-01 4.2102463e+01 
-3.1255043e-01 9.2386365e-01 4.1987617e+01 
-4.8150036e-02 7.5403398e-01 4.2023121e+01 
-1.5144684e-02 5.2712250e-01 4.2060505e+01 
-3.7995064e-01 8.2661813e-01 4.1980038e+01 
2.0541981e-01 4.1251117e-01 4.2130333e+01 
-1.6306458e-01 8.4468329e-01 4.1945896e+01 
-4.3632182e-01 9.6402621e-01 4.1920536e+01 
-1.4500406e-01 6.0625184e-01 4.1961609e+01 
1.3375351e-01 5.6370503e-01 4.1969833e+01 
-2.6623246e-01 7.0021385e-01 4.1881653e+01 
-3.1132740e-01 9.2410773e-01 4.1853493e+01 
-3.9880505e-01 8.5261923e-01 4.1851868e+01 
4.9827534e-01 2.9925787e-01 4.2137547e+01 
3.4194937e-01 3.8685825e-01 4.2025021e+01 
-4.2648647e-02 7.5191063e-01 4.1859051e+01 
-2.5401810e-01 7.9503769e-01 4.1808533e+01 
1.8480448e-02 5.0547802e-01 4.1877510e+01 
-4.3632126e-01 9.6402287e-01 4.1785946e+01 
-1.5947884e-01 8.4443361e-01 4.1780174e+01 
-1.4089009e-01 6.0172999e-01 4.1793541e+01 
-3.1009343e-01 9.2434150e-01 4.1718426e+01 
-4.0306881e-01 8.5845691e-01 4.1716179e+01 
8.5861288e-02 6.1683756e-01 4.1774368e+01 
-2.6447710e-01 6.9743657e-01 4.1711910e+01 
3.0427080e-01 4.1638452e-01 4.1839512e+01 
2.6751360e-01 3.7833902e-01 4.1830902e+01 
5.1012677e-01 2.9080975e-01 4.1931297e+01 
-3.7014309e-02 7.4967718e-01 4.1691463e+01 
-4.3632072e-01 9.6401966e-01 4.1650398e+01 
2.5847588e-02 4.9913955e-01 4.1707767e+01 
-1.5583332e-01 8.4415752e-01 4.1610870e+01 
-3.8322043e-01 8.2981020e-01 4.1595791e+01 
-3.0884841e-01 9.2456430e-01 4.1582397e+01 
-1.3665022e-01 5.9708190e-01 4.1621960e+01 
9.3565010e-02 6.1167872e-01 4.1605015e+01 
-2.6268822e-01 6.9460052e-01 4.1538593e+01 
-4.3632022e-01 9.6401656e-01 4.1513885e+01 
-3.1243213e-02 7.4732590e-01 4.1520226e+01 
2.7603787e-01 3.7115356e-01 4.1624012e+01 
2.8505871e-01 4.3281260e-01 4.1611507e+01 
5.2195001e-01 2.8233302e-01 4.1725052e+01 
3.3468332e-02 4.9260557e-01 4.1534447e+01 
-3.9853087e-01 8.5081697e-01 4.1443768e+01 
-3.2560509e-01 9.3245691e-01 4.1443577e+01 
-1.5212752e-01 8.4385180e-01 4.1437847e+01 
-1.3227913e-01 5.9230179e-01 4.1446728e+01 
-4.3631971e-01 9.6401358e-01 4.1376381e+01 
[...]
POINT_DATA 6166
FIELD FieldData 5
DISPLACEMENT 3 6166  float
-9.4341773e-01 -8.6244267e-01 -3.1426493e-02 
-9.3764973e-01 -8.5663730e-01 -3.1148080e-02 
-9.4339514e-01 -8.6230153e-01 -2.8381087e-02 
-9.4310397e-01 -8.6226338e-01 -3.4922116e-02 
-9.3474591e-01 -8.5360187e-01 -2.8108479e-02 
-9.3467933e-01 -8.5378569e-01 -3.4556914e-02 
-9.3184972e-01 -8.5079974e-01 -3.0868160e-02 
-9.4332093e-01 -8.6214781e-01 -2.6346656e-02 
-9.4290298e-01 -8.6207610e-01 -3.5301235e-02 
-9.3744612e-01 -8.5622996e-01 -2.5935182e-02 
-9.3682891e-01 -8.5596412e-01 -3.5044085e-02 
-9.2893201e-01 -8.4774774e-01 -2.7760137e-02 
-9.2822677e-01 -8.4729022e-01 -3.4218643e-02 
-9.3147177e-01 -8.5021192e-01 -2.5516830e-02 
-9.2601705e-01 -8.4492934e-01 -3.0586697e-02 
-9.4321555e-01 -8.6199629e-01 -2.5174825e-02 
-9.3065512e-01 -8.4975171e-01 -3.4782674e-02 
-9.4278455e-01 -8.6191893e-01 -3.4318168e-02 
-9.3420798e-01 -8.5292310e-01 -2.4553614e-02 
-9.3349832e-01 -8.5257500e-01 -3.3933464e-02 
-9.2308515e-01 -8.4186047e-01 -2.7410012e-02 
-9.2229182e-01 -8.4131616e-01 -3.3917617e-02 
-9.2539477e-01 -8.4409046e-01 -2.5091469e-02 
-9.2437840e-01 -8.4343570e-01 -3.4516811e-02 
-9.2015123e-01 -8.3902556e-01 -3.0303657e-02 
-9.2817795e-01 -8.4684873e-01 -2.4126094e-02 
-9.4304633e-01 -8.6182058e-01 -2.5030453e-02 
-9.2726970e-01 -8.4630686e-01 -3.3653714e-02 
-9.4269961e-01 -8.6175382e-01 -3.2267533e-02 
-9.1720492e-01 -8.3593965e-01 -2.7058121e-02 
-9.1685885e-01 -8.3583939e-01 -3.3431549e-02 
-9.1921180e-01 -8.3786243e-01 -2.4658989e-02 
-9.3094122e-01 -8.4962904e-01 -2.4240715e-02 
-9.2204350e-01 -8.4066927e-01 -2.3691498e-02 
-9.1799551e-01 -8.3701307e-01 -3.4246318e-02 
-9.3025225e-01 -8.4921968e-01 -3.1508252e-02 
-9.3606693e-01 -8.5479468e-01 -2.4662351e-02 
-9.2093652e-01 -8.3993351e-01 -3.3368684e-02 
-9.1425174e-01 -8.3308792e-01 -3.0018983e-02 
-9.3572074e-01 -8.5467809e-01 -3.0603359e-02 
-9.2552048e-01 -8.4416687e-01 -2.3815718e-02 
-9.2463160e-01 -8.4357774e-01 -3.1624082e-02 
-9.4285774e-01 -8.6162245e-01 -2.4806844e-02 
-9.4263214e-01 -8.6157501e-01 -2.9410919e-02 
-9.1129071e-01 -8.2998484e-01 -2.6704356e-02 
-9.1094142e-01 -8.2988447e-01 -3.3163495e-02 
-9.1291964e-01 -8.3152455e-01 -2.4219269e-02 
-9.1580129e-01 -8.3438140e-01 -2.3249732e-02 
-9.1150326e-01 -8.3048028e-01 -3.3971142e-02 
-9.1449541e-01 -8.3345169e-01 -3.3078361e-02 
-9.0831786e-01 -8.2711619e-01 -2.9732887e-02 
-9.1866428e-01 -8.3726424e-01 -2.3427794e-02 
-9.1758531e-01 -8.3646947e-01 -3.0857386e-02 
-9.2777240e-01 -8.4642339e-01 -2.3673072e-02 
-9.3578988e-01 -8.5448092e-01 -2.3754038e-02 
-9.3557525e-01 -8.5438740e-01 -2.6891636e-02 
-9.2715997e-01 -8.4596807e-01 -2.7780890e-02 
-9.0506494e-01 -8.2396537e-01 -3.2752723e-02 
-9.0534186e-01 -8.2399535e-01 -2.6349062e-02 
-9.0944809e-01 -8.2798189e-01 -2.2800727e-02 
-9.1305137e-01 -8.3160841e-01 -2.2984596e-02 
-9.0651476e-01 -8.2507330e-01 -2.3772193e-02 
-9.4268829e-01 -8.6140734e-01 -2.3655942e-02 
-9.4258004e-01 -8.6138177e-01 -2.5792016e-02 
-9.0794319e-01 -8.2685810e-01 -3.2782257e-02 
-9.1177106e-01 -8.3063334e-01 -3.0976349e-02 
-9.0489829e-01 -8.2383436e-01 -3.3690799e-02 
-9.0234959e-01 -8.2110959e-01 -2.9444966e-02 
-9.1539335e-01 -8.3395636e-01 -2.2868598e-02 
-8.9935839e-01 -8.1797135e-01 -2.5991647e-02 
-8.9900291e-01 -8.1787091e-01 -3.2623615e-02 
-9.0298033e-01 -8.2146722e-01 -2.2344423e-02 
-9.1439945e-01 -8.3311832e-01 -2.6988922e-02 
-8.9999378e-01 -8.1850559e-01 -2.3317792e-02 
-9.0594965e-01 -8.2445914e-01 -2.2589158e-02 
-9.0127641e-01 -8.2014936e-01 -3.2480288e-02 
-8.9817691e-01 -8.1707144e-01 -3.3405706e-02 
-9.0448052e-01 -8.2327878e-01 -3.0178076e-02 
-8.9634591e-01 -8.1506789e-01 -2.9155627e-02 
-9.4260025e-01 -8.6118722e-01 -2.0276038e-02 
-9.3270165e-01 -8.5121745e-01 -1.9622564e-02 
-8.9333928e-01 -8.1191123e-01 -2.5632564e-02 
-8.9298087e-01 -8.1181115e-01 -3.2351747e-02 
-8.9639449e-01 -8.1483418e-01 -2.1880751e-02 
-8.9941961e-01 -8.1788313e-01 -2.2160206e-02 
-8.9846075e-01 -8.1723666e-01 -3.0300351e-02 
-8.9335275e-01 -8.1181747e-01 -2.2856006e-02 
-8.9449161e-01 -8.1332219e-01 -3.2172307e-02 
-8.9030635e-01 -8.0899030e-01 -2.8864600e-02 
-9.2280316e-01 -8.4124810e-01 -1.8969489e-02 
-9.0113485e-01 -8.1960535e-01 -2.2148846e-02 
-8.9133584e-01 -8.1018865e-01 -3.3115167e-02 
-9.0757030e-01 -8.2604110e-01 -2.1410700e-02 
-9.0751785e-01 -8.2607991e-01 -2.3765385e-02 
-9.0119565e-01 -8.1982243e-01 -2.6157778e-02 
-8.8731444e-01 -8.0612260e-01 -3.2423664e-02 
-8.8728404e-01 -8.0581570e-01 -2.5272228e-02 
-8.9276963e-01 -8.1118703e-01 -2.1724464e-02 
-8.8968682e-01 -8.0807889e-01 -2.1409489e-02 
-9.1290545e-01 -8.3127999e-01 -1.8317295e-02 
-8.8658851e-01 -8.0500555e-01 -2.2385994e-02 
-8.9091063e-01 -8.0962110e-01 -2.9468104e-02 
-8.8758469e-01 -8.0637288e-01 -3.1858537e-02 
-8.8423079e-01 -8.0287677e-01 -2.8572125e-02 
-8.8437110e-01 -8.0318165e-01 -3.2819223e-02 
-8.9767891e-01 -8.1607962e-01 -2.0749832e-02 
-8.8673490e-01 -8.0510718e-01 -2.1243779e-02 
-8.8119221e-01 -7.9968411e-01 -2.4909828e-02 
-8.8091123e-01 -7.9968178e-01 -3.2169223e-02 
-8.8285339e-01 -8.0119753e-01 -2.0930754e-02 
-8.8467240e-01 -8.0336040e-01 -2.9594565e-02 
-9.0301013e-01 -8.2131451e-01 -1.7667182e-02 
-8.8927698e-01 -8.0765736e-01 -2.1173749e-02 
-8.7969655e-01 -7.9806572e-01 -2.1908548e-02 
-8.7811774e-01 -7.9672647e-01 -2.8278176e-02 
-8.8055241e-01 -7.9929769e-01 -3.1537730e-02 
-8.8752186e-01 -8.0605447e-01 -2.5283534e-02 
-8.7727869e-01 -7.9604739e-01 -3.2517549e-02 
-8.7506306e-01 -7.9351526e-01 -2.4546029e-02 
-8.7441999e-01 -7.9314816e-01 -3.1798065e-02 
-8.7909442e-01 -7.9741853e-01 -2.0832809e-02 
-8.7589037e-01 -7.9418635e-01 -2.0444406e-02 
-8.9311498e-01 -8.1134987e-01 -1.7017683e-02 
-8.7196761e-01 -7.9053956e-01 -2.7982252e-02 
-8.7684613e-01 -7.9546744e-01 -2.8726064e-02 
-8.7267303e-01 -7.9099447e-01 -2.1423532e-02 
-8.7339002e-01 -7.9209286e-01 -3.1210929e-02 
-8.7005538e-01 -7.8878194e-01 -3.2209612e-02 
-8.6889690e-01 -7.8730971e-01 -2.4180971e-02 
-8.6852658e-01 -7.8720927e-01 -3.1250443e-02 
-8.7282813e-01 -7.9110640e-01 -2.0333346e-02 
-8.7548161e-01 -7.9376853e-01 -2.0280398e-02 
-8.6879361e-01 -7.8704154e-01 -1.9950990e-02 
-8.7037528e-01 -7.8897470e-01 -2.8857158e-02 
-8.6578083e-01 -7.8431582e-01 -2.7684256e-02 
-8.8322425e-01 -8.0139172e-01 -1.6370341e-02 
-8.7334734e-01 -7.9178363e-01 -2.4364315e-02 
-8.6551434e-01 -7.8378832e-01 -2.0930914e-02 
-8.6609530e-01 -7.8475493e-01 -3.0876184e-02 
-8.6248720e-01 -7.8113109e-01 -3.0860391e-02 
-8.6269343e-01 -7.8106833e-01 -2.3813499e-02 
-8.6269712e-01 -7.8138125e-01 -3.1896476e-02 
-8.6489326e-01 -7.8312355e-01 -1.9914897e-02 
-8.5955578e-01 -7.7805483e-01 -2.7385345e-02 
-8.6156011e-01 -7.7976048e-01 -1.9450171e-02 
-8.6225766e-01 -7.8078979e-01 -2.7948696e-02 
-8.5821581e-01 -7.7644241e-01 -2.0430388e-02 
-8.5866410e-01 -7.7728081e-01 -3.0536117e-02 
-8.6802524e-01 -7.8622377e-01 -1.8778846e-02 
-8.7333852e-01 -7.9144061e-01 -1.5725467e-02 
-8.5645145e-01 -7.7478713e-01 -2.3444399e-02 
-8.5607529e-01 -7.7468657e-01 -3.0690379e-02 
-8.5519928e-01 -7.7384180e-01 -3.1577453e-02 
-8.5838145e-01 -7.7656674e-01 -1.9395517e-02 
-8.6115450e-01 -7.7934855e-01 -1.9355806e-02 
-8.5329247e-01 -7.7175558e-01 -2.7084049e-02 
-8.5418344e-01 -7.7233630e-01 -1.8940737e-02 
-8.5554010e-01 -7.7405143e-01 -2.8085340e-02 
-8.5864288e-01 -7.7698398e-01 -2.3397140e-02 
-8.5038823e-01 -7.6897907e-01 -3.0730987e-02 
-8.5562992e-01 -7.7393490e-01 -2.2759419e-02 
-8.5029560e-01 -7.6861149e-01 -2.3530746e-02 
-8.5077316e-01 -7.6895237e-01 -1.9921849e-02 
-8.5108936e-01 -7.6966435e-01 -3.0187115e-02 
-8.6345696e-01 -7.8149354e-01 -1.5084007e-02 
-8.4755760e-01 -7.6615936e-01 -3.1250946e-02 
-8.4699118e-01 -7.6541972e-01 -2.6781479e-02 
-8.5013139e-01 -7.6826948e-01 -1.8968634e-02 
-8.4666055e-01 -7.6476562e-01 -1.8424191e-02 
-8.4363884e-01 -7.6219815e-01 -3.0525737e-02 
-8.4385276e-01 -7.6211351e-01 -2.2703875e-02 
-8.4710950e-01 -7.6555330e-01 -2.7134607e-02 
-8.4318238e-01 -7.6131451e-01 -1.9404443e-02 
-8.4336805e-01 -7.6190197e-01 -2.9832041e-02 
-8.4065086e-01 -7.5904495e-01 -2.6477922e-02 
-8.5358113e-01 -7.7155596e-01 -1.4445540e-02 
-8.3976752e-01 -7.5832897e-01 -3.0918395e-02 
-8.4646362e-01 -7.6455909e-01 -1.8208737e-02 
-8.4253055e-01 -7.6062173e-01 -1.8484809e-02 
-8.3749408e-01 -7.5571990e-01 -2.2330865e-02 
-8.3898610e-01 -7.5704437e-01 -1.7900836e-02 
-8.4012902e-01 -7.5855398e-01 -2.7276758e-02 
-8.3676523e-01 -7.5528860e-01 -3.0193692e-02 
-8.4337181e-01 -7.6161712e-01 -2.2378827e-02 
-8.3543807e-01 -7.5352377e-01 -1.8880172e-02 
-8.3426917e-01 -7.5263107e-01 -2.6173122e-02 
-8.3549726e-01 -7.5399101e-01 -2.9467402e-02 
-8.3608091e-01 -7.5414014e-01 -1.8195946e-02 
-8.3182561e-01 -7.5034863e-01 -3.0578274e-02 
-8.3109546e-01 -7.4928695e-01 -2.1957772e-02 
-8.3070648e-01 -7.4918544e-01 -2.9553015e-02 
-8.4371608e-01 -7.6163250e-01 -1.3811300e-02 
-8.3842373e-01 -7.5643826e-01 -1.6837442e-02 
-8.3115703e-01 -7.4916947e-01 -1.7370656e-02 
-8.2863420e-01 -7.4694508e-01 -2.5291003e-02 
-8.3136880e-01 -7.4972731e-01 -2.6280552e-02 
-8.2784957e-01 -7.4618101e-01 -2.5866862e-02 
-8.2753730e-01 -7.4557924e-01 -1.8351443e-02 
-8.2747364e-01 -7.4592793e-01 -2.9093012e-02 
-8.2465786e-01 -7.4281687e-01 -2.1583255e-02 
-8.2425159e-01 -7.4269801e-01 -2.9162994e-02 
-8.2686204e-01 -7.4486542e-01 -1.7501961e-02 
-8.2372791e-01 -7.4221468e-01 -3.0230090e-02 
-8.2961547e-01 -7.4760002e-01 -1.6800754e-02 
-8.2904869e-01 -7.4716920e-01 -2.0356547e-02 
-8.3385515e-01 -7.5171250e-01 -1.3181950e-02 
-8.2317007e-01 -7.4113816e-01 -1.6834505e-02 
-8.2139111e-01 -7.3969340e-01 -2.5556881e-02 
-8.2326794e-01 -7.4158645e-01 -2.5835861e-02 
-8.1947637e-01 -7.3747522e-01 -1.7814497e-02 
-8.1845617e-01 -7.3689282e-01 -2.9303420e-02 
-8.1818348e-01 -7.3631161e-01 -2.1209786e-02 
-8.1929016e-01 -7.3770928e-01 -2.8713865e-02 
-8.1879038e-01 -7.3675174e-01 -1.6998598e-02 
-8.1547213e-01 -7.3392391e-01 -2.9876113e-02 
-8.1489730e-01 -7.3316979e-01 -2.5246467e-02 
-8.1501764e-01 -7.3294491e-01 -1.6291521e-02 
-8.1918007e-01 -7.3725265e-01 -1.9819362e-02 
-8.1877929e-01 -7.3671860e-01 -1.6417580e-02 
-8.2400876e-01 -7.4181277e-01 -1.2558623e-02 
-8.1500602e-01 -7.3328710e-01 -2.5382282e-02 
-8.1127363e-01 -7.2966695e-01 -2.8682020e-02 
-8.1158721e-01 -7.2970170e-01 -2.1320051e-02 
-8.1124806e-01 -7.2920817e-01 -1.7268518e-02 
-8.1094605e-01 -7.2933137e-01 -2.8323868e-02 
-8.0836070e-01 -7.2660673e-01 -2.4936428e-02 
-8.1169450e-01 -7.2962707e-01 -1.6666826e-02 
-8.0705082e-01 -7.2547060e-01 -2.9513286e-02 
-8.0669785e-01 -7.2458631e-01 -1.5741657e-02 
-8.0511606e-01 -7.2318637e-01 -2.0455807e-02 
-8.0471349e-01 -7.2308439e-01 -2.8389506e-02 
-8.0658013e-01 -7.2482622e-01 -2.4916984e-02 
-8.0979830e-01 -7.2781801e-01 -1.8992502e-02 
-8.1417799e-01 -7.3193306e-01 -1.1940054e-02 
-8.0285084e-01 -7.2077298e-01 -1.6716180e-02 
-8.0844945e-01 -7.2633147e-01 -1.5511294e-02 
-8.0178303e-01 -7.2000688e-01 -2.4627645e-02 
-8.0243468e-01 -7.2078919e-01 -2.7925445e-02 
-8.0299395e-01 -7.2089082e-01 -1.6152753e-02 
-7.9851973e-01 -7.1656626e-01 -2.0079078e-02 
-7.9811442e-01 -7.1646672e-01 -2.8096290e-02 
-7.9846025e-01 -7.1685201e-01 -2.9144220e-02 
-7.9820418e-01 -7.1605682e-01 -1.5184619e-02 
-7.9798478e-01 -7.1619952e-01 -2.4440622e-02 
-7.9516548e-01 -7.1337032e-01 -2.4314798e-02 
-8.0039358e-01 -7.1838969e-01 -1.8778952e-02 
-8.0436432e-01 -7.2207510e-01 -1.1329047e-02 
-7.9427624e-01 -7.1216470e-01 -1.6156519e-02 
-7.9375017e-01 -7.1207815e-01 -2.7518477e-02 
-7.9891837e-01 -7.1675903e-01 -1.4840460e-02 
-7.9188377e-01 -7.0990765e-01 -1.9702166e-02 
-7.9147696e-01 -7.0980996e-01 -2.7801398e-02 
-7.9395604e-01 -7.1181959e-01 -1.5603551e-02 
-7.8969365e-01 -7.0806271e-01 -2.8767509e-02 
-7.8850889e-01 -7.0669383e-01 -2.3998858e-02 
-7.8952974e-01 -7.0735162e-01 -1.4620988e-02 
-7.8921342e-01 -7.0740056e-01 -2.3952737e-02 
-7.8520954e-01 -7.0321351e-01 -1.9324148e-02 
-7.8479844e-01 -7.0311290e-01 -2.7507152e-02 
-7.8551841e-01 -7.0337892e-01 -1.5588325e-02 
-7.9456890e-01 -7.1224076e-01 -1.0725874e-02 
-7.8488708e-01 -7.0319355e-01 -2.7102411e-02 
-7.8929460e-01 -7.0726627e-01 -1.8470287e-02 
-7.8946459e-01 -7.0726746e-01 -1.4162437e-02 
-7.8180987e-01 -6.9997913e-01 -2.3685753e-02 
-7.8477454e-01 -7.0260912e-01 -1.5051114e-02 
-7.8074616e-01 -6.9909757e-01 -2.8381066e-02 
-7.8067088e-01 -6.9846624e-01 -1.4052892e-02 
-7.8161263e-01 -6.9975525e-01 -2.2901386e-02 
-7.7848917e-01 -6.9647777e-01 -1.8944927e-02 
-7.7807927e-01 -6.9638336e-01 -2.7205896e-02 
-7.7657354e-01 -6.9441044e-01 -1.5016016e-02 
-7.8479195e-01 -7.0242900e-01 -1.0121997e-02 
-7.7507138e-01 -6.9323087e-01 -2.3364484e-02 
-7.7584285e-01 -6.9413197e-01 -2.6677383e-02 
-7.7988118e-01 -6.9765657e-01 -1.3603470e-02 
-7.7866703e-01 -6.9658011e-01 -1.7117135e-02 
-7.7557999e-01 -6.9339043e-01 -1.4500172e-02 
-7.7173287e-01 -6.8970954e-01 -1.8562121e-02 
-7.7131665e-01 -6.8961334e-01 -2.6904995e-02 
-7.7161622e-01 -6.8995374e-01 -2.7990591e-02 
-7.7162260e-01 -6.8939686e-01 -1.3479609e-02 
-7.7248406e-01 -6.9059104e-01 -2.1970727e-02 
-7.6828939e-01 -6.8643981e-01 -2.3044460e-02 
-7.6744080e-01 -6.8525732e-01 -1.4438017e-02 
-7.6686448e-01 -6.8497968e-01 -2.2131152e-02 
-7.7503628e-01 -6.9264853e-01 -9.5286015e-03 
-7.6661152e-01 -6.8488878e-01 -2.6243025e-02 
-7.7041137e-01 -6.8816978e-01 -1.3195898e-02 
-7.6493281e-01 -6.8289983e-01 -1.8186428e-02 
-7.6451236e-01 -6.8280023e-01 -2.6605172e-02 
-7.6630992e-01 -6.8410212e-01 -1.3935770e-02 
-7.6898438e-01 -6.8686330e-01 -1.6228322e-02 
-7.6229507e-01 -6.8062484e-01 -2.7588071e-02 
-7.6146722e-01 -6.7961031e-01 -2.2728516e-02 
-7.6237828e-01 -6.8013686e-01 -1.2899112e-02 
-7.6302028e-01 -6.8111348e-01 -2.1385549e-02 
-7.5808930e-01 -6.7604893e-01 -1.7803930e-02 
-7.5767183e-01 -6.7595577e-01 -2.6302233e-02 
-7.5810063e-01 -6.7590797e-01 -1.3854831e-02 
-7.6529646e-01 -6.8288761e-01 -8.9403708e-03 
-7.5718606e-01 -6.7545789e-01 -2.5797941e-02 
-7.6088852e-01 -6.7863172e-01 -1.2651505e-02 
-7.5460255e-01 -6.7274415e-01 -2.2405468e-02 
-7.5690645e-01 -6.7468870e-01 -1.3375343e-02 
-7.5949579e-01 -6.7734462e-01 -1.5237156e-02 
-7.5298500e-01 -6.7101008e-01 -1.9213721e-02 
-7.5277597e-01 -6.7110658e-01 -2.7182354e-02 
-7.5292993e-01 -6.7068070e-01 -1.2315012e-02 
-7.5120562e-01 -6.6916674e-01 -1.7421443e-02 
-7.5325227e-01 -6.7133075e-01 -2.0592881e-02 
-7.4989766e-01 -6.6819710e-01 -2.6301319e-02 
-7.4856013e-01 -6.6636294e-01 -1.3263059e-02 
-7.4769241e-01 -6.6583878e-01 -2.2084154e-02 
-7.5558668e-01 -6.7316806e-01 -8.3641820e-03 
-7.4758452e-01 -6.6584009e-01 -2.4839580e-02 
-7.5105250e-01 -6.6879737e-01 -1.2199701e-02 
-7.4770641e-01 -6.6548187e-01 -1.2775932e-02 
-7.5032824e-01 -6.6813886e-01 -1.3809986e-02 
-7.4429899e-01 -6.6226423e-01 -1.7071163e-02 
-7.4387687e-01 -6.6216910e-01 -2.5685063e-02 
-7.4305588e-01 -6.6139269e-01 -2.6765486e-02 
-7.4332005e-01 -6.6107267e-01 -1.1731770e-02 
-7.4079025e-01 -6.5894163e-01 -2.1761814e-02 
-7.4160653e-01 -6.5968382e-01 -1.9836985e-02 
-7.3888707e-01 -6.5669590e-01 -1.2669952e-02 
-7.4591184e-01 -6.6349328e-01 -7.8018401e-03 
-7.3742098e-01 -6.5539050e-01 -1.6744027e-02 
-7.3700356e-01 -6.5530020e-01 -2.5361147e-02 
-7.3786777e-01 -6.5615380e-01 -2.4964876e-02 
-7.4066758e-01 -6.5848076e-01 -1.3239660e-02 
-7.3926789e-01 -6.5701580e-01 -1.1469960e-02 
-7.3637283e-01 -6.5415913e-01 -1.2128936e-02 
-7.3393559e-01 -6.5209299e-01 -2.1439599e-02 
-7.3338073e-01 -6.5172958e-01 -2.6356868e-02 
-7.3373562e-01 -6.5149534e-01 -1.1144675e-02 
-7.3258561e-01 -6.5074188e-01 -2.1103894e-02 
-7.3059410e-01 -6.4857388e-01 -1.6425541e-02 
-7.2973448e-01 -6.4805430e-01 -2.5408732e-02 
-7.2937417e-01 -6.4719045e-01 -1.2092655e-02 
-7.3625982e-01 -6.5384942e-01 -7.2449152e-03 
-7.2826529e-01 -6.4657164e-01 -2.4604775e-02 
-7.2712809e-01 -6.4529794e-01 -2.1125395e-02 
-7.2829783e-01 -6.4608955e-01 -1.1601306e-02 
-7.3019558e-01 -6.4812011e-01 -1.5089885e-02 
-7.3112768e-01 -6.4885539e-01 -1.0170199e-02 
-7.2739029e-01 -6.4518344e-01 -1.1556152e-02 
-7.2385120e-01 -6.4221984e-01 -2.5947664e-02 
-7.2380930e-01 -6.4180374e-01 -1.6112631e-02 
-7.2339702e-01 -6.4171648e-01 -2.4720106e-02 
-7.2430944e-01 -6.4207739e-01 -1.0578519e-02 
-7.2306210e-01 -6.4124489e-01 -2.0845119e-02 
-7.2037089e-01 -6.3855803e-01 -2.0811409e-02 
-7.2001863e-01 -6.3784850e-01 -1.1538384e-02 
-7.2663736e-01 -6.4424199e-01 -6.6842670e-03 
-7.1881264e-01 -6.3714486e-01 -2.4246955e-02 
-7.1735400e-01 -6.3570982e-01 -2.4939742e-02 
-7.1708196e-01 -6.3509470e-01 -1.5808543e-02 
-7.1896225e-01 -6.3676590e-01 -1.1033795e-02 
-7.2151893e-01 -6.3926089e-01 -9.6121132e-03 
-7.2141325e-01 -6.3925290e-01 -1.2116193e-02 
-7.1447015e-01 -6.3286418e-01 -2.5545744e-02 
-7.1778321e-01 -6.3580012e-01 -1.6246259e-02 
-7.1503764e-01 -6.3282561e-01 -1.0030931e-02 
-7.1366817e-01 -6.3187134e-01 -2.0504339e-02 
-7.1645355e-01 -6.3426411e-01 -1.0937615e-02 
-7.1368945e-01 -6.3190544e-01 -2.0586798e-02 
-7.1040046e-01 -6.2843007e-01 -1.5504556e-02 
-7.1081519e-01 -6.2867004e-01 -1.0996017e-02 
-7.1702647e-01 -6.3464606e-01 -6.1456072e-03 
-7.0950723e-01 -6.2787253e-01 -2.3893094e-02 
-7.0867527e-01 -6.2706089e-01 -2.4640588e-02 
-7.0978171e-01 -6.2761021e-01 -1.0482122e-02 
-7.0700496e-01 -6.2523466e-01 -2.0196229e-02 
-7.1192861e-01 -6.2968481e-01 -9.0601677e-03 
-7.1182042e-01 -6.2967509e-01 -1.1561427e-02 
-7.0523244e-01 -6.2366349e-01 -2.5151178e-02 
-7.0591897e-01 -6.2373644e-01 -9.5006051e-03 
-7.0376331e-01 -6.2182266e-01 -1.5211060e-02 
-7.0335907e-01 -6.2174028e-01 -2.3780078e-02 
-7.0663804e-01 -6.2471831e-01 -1.6354134e-02 
-7.0689321e-01 -6.2473178e-01 -1.0414141e-02 
-7.0446330e-01 -6.2272179e-01 -2.0328121e-02 
-7.0192575e-01 -6.2017548e-01 -1.9946694e-02 
-7.0176768e-01 -6.1965626e-01 -1.0474097e-02 
-7.0039618e-01 -6.1865222e-01 -1.9891189e-02 
-7.0744944e-01 -6.2509048e-01 -5.6138402e-03 
-6.9973469e-01 -6.1818117e-01 -2.4771476e-02 
-7.0034921e-01 -6.1875427e-01 -2.3541441e-02 
-7.0075601e-01 -6.1861634e-01 -9.9469274e-03 
-7.0237845e-01 -6.2016833e-01 -8.5224509e-03 
-7.0226729e-01 -6.2015742e-01 -1.1017089e-02 
-6.9718170e-01 -6.1527538e-01 -1.4923233e-02 
-6.9677228e-01 -6.1518621e-01 -2.3468841e-02 
-6.9663841e-01 -6.1482674e-01 -1.7453326e-02 
-6.9613659e-01 -6.1461163e-01 -2.4756232e-02 
-6.9663709e-01 -6.1477983e-01 -1.6235271e-02 
-6.9695902e-01 -6.1481106e-01 -8.9934170e-03 
-6.9711316e-01 -6.1523765e-01 -1.5796125e-02 
-6.9737232e-01 -6.1525244e-01 -9.9016568e-03 
-6.9538826e-01 -6.1369562e-01 -2.0063717e-02 
-6.9383907e-01 -6.1213022e-01 -1.9597240e-02 
-6.9317907e-01 -6.1166072e-01 -2.4460014e-02 
-6.9287026e-01 -6.1080086e-01 -9.9798879e-03 
-6.9094783e-01 -6.0938209e-01 -2.2879617e-02 
-6.9132793e-01 -6.0978609e-01 -2.3197133e-02 
-6.9791245e-01 -6.1559296e-01 -5.0948095e-03 
-6.9082564e-01 -6.0913086e-01 -1.9388756e-02 
-6.9065028e-01 -6.0877734e-01 -1.4642336e-02 
-6.9188863e-01 -6.0979247e-01 -9.4219092e-03 
-6.9286799e-01 -6.1070663e-01 -7.9954388e-03 
-6.9275445e-01 -6.1069435e-01 -1.0483509e-02 
-6.8733674e-01 -6.0566586e-01 -1.9298133e-02 
-6.8718934e-01 -6.0571945e-01 -2.4372015e-02 
-6.8813652e-01 -6.0603857e-01 -8.5019059e-03 
-6.8645000e-01 -6.0481817e-01 -1.9819835e-02 
-6.8762857e-01 -6.0580003e-01 -1.5236174e-02 
-6.8789011e-01 -6.0582131e-01 -9.3898475e-03 
-6.8417448e-01 -6.0234255e-01 -1.4361611e-02 
-6.8411052e-01 -6.0244715e-01 -1.8712454e-02 
-6.8376917e-01 -6.0226262e-01 -2.2854758e-02 
-6.8411994e-01 -6.0209864e-01 -9.4910571e-03 
-6.8245083e-01 -6.0096443e-01 -2.2855479e-02 
-6.8841773e-01 -6.0614878e-01 -4.5895539e-03 
-6.8316174e-01 -6.0111386e-01 -8.9222491e-03 
-6.8088192e-01 -5.9925538e-01 -1.9010132e-02 
-6.8022805e-01 -5.9879166e-01 -2.3867918e-02 
-6.7903417e-01 -5.9726417e-01 -1.4925186e-02 
-6.7947263e-01 -5.9742528e-01 -8.0274455e-03 
-6.7837596e-01 -5.9696513e-01 -2.3990568e-02 
-6.8340015e-01 -6.0129225e-01 -7.4803648e-03 
-6.8328452e-01 -6.0127783e-01 -9.9622170e-03 
-6.7793941e-01 -5.9631753e-01 -1.8454561e-02 