# vtk DataFile Version 4.0
vtk output
ASCII
DATASET UNSTRUCTURED_GRID
POINTS 6166 float
-4.3633327e-01 9.6409470e-01 4.4200001e+01 
-4.3633261e-01 9.6409082e-01 4.4079685e+01 
-3.2145375e-01 9.1276109e-01 4.4200001e+01 
-3.8566181e-01 8.4097892e-01 4.4200001e+01 
-3.3069235e-01 9.1895354e-01 4.4019413e+01 
-3.8473952e-01 8.3919770e-01 4.4024357e+01 
-4.3633196e-01 9.6408689e-01 4.3958702e+01 
-2.1293370e-01 8.4677851e-01 4.4200001e+01 
-2.9042658e-01 7.3813015e-01 4.4200001e+01 
-2.1019450e-01 8.4669626e-01 4.4077393e+01 
-2.8909999e-01 7.3605996e-01 4.4073399e+01 
-3.2963324e-01 9.1929907e-01 4.3898094e+01 
-3.8679782e-01 8.4179753e-01 4.3889645e+01 
-2.0740938e-01 8.4661204e-01 4.3952713e+01 
-4.3633130e-01 9.6408290e-01 4.3837040e+01 
-1.1677200e-01 7.7521002e-01 4.4200001e+01 
-2.8775173e-01 7.3395580e-01 4.3944717e+01 
-1.9365783e-01 6.6203654e-01 4.4200001e+01 
-1.1309985e-01 7.7540898e-01 4.4012005e+01 
-1.9181472e-01 6.5888047e-01 4.4006447e+01 
-3.2856464e-01 9.1964108e-01 4.3776085e+01 
-3.8823184e-01 8.4352189e-01 4.3765770e+01 
-2.0457739e-01 8.4652513e-01 4.3825886e+01 
-2.8638119e-01 7.3181647e-01 4.3813885e+01 
-4.3633065e-01 9.6407896e-01 4.3714680e+01 
-1.0911675e-01 7.7426714e-01 4.3886200e+01 
-2.1001574e-02 6.8269837e-01 4.4200001e+01 
-1.8902887e-01 6.5566909e-01 4.3876659e+01 
-7.8887597e-02 5.9015810e-01 4.4200001e+01 
-3.2748649e-01 9.1997939e-01 4.3653378e+01 
-3.9889076e-01 8.5876143e-01 4.3651733e+01 
-2.0169757e-01 8.4643483e-01 4.3696846e+01 
-7.2496021e-03 6.7325598e-01 4.3947758e+01 
-1.0504345e-01 7.7307969e-01 4.3758209e+01 
-2.8498772e-01 7.2964084e-01 4.3680840e+01 
-6.3224643e-02 5.7783771e-01 4.3940754e+01 
3.5808440e-02 6.2679136e-01 4.4056572e+01 
-1.8616955e-01 6.5238589e-01 4.3744686e+01 
-4.3632996e-01 9.6407503e-01 4.3591618e+01 
-9.8678423e-03 5.4892725e-01 4.4055367e+01 
-1.8652271e-02 6.8798620e-01 4.3834026e+01 
-7.9845116e-02 5.8636194e-01 4.3823372e+01 
8.7777540e-02 5.7885915e-01 4.4200001e+01 
5.3622175e-02 5.1732427e-01 4.4200001e+01 
-3.2639861e-01 9.2031354e-01 4.3529953e+01 
-3.9894739e-01 8.5844576e-01 4.3528313e+01 
-1.9876897e-01 8.4634024e-01 4.3565521e+01 
-1.0087753e-01 7.7184403e-01 4.3627972e+01 
-2.8357074e-01 7.2742778e-01 4.3545506e+01 
-1.8323407e-01 6.4902818e-01 4.3610458e+01 
-4.3632931e-01 9.6407109e-01 4.3467831e+01 
3.1033519e-03 6.6751039e-01 4.3691772e+01 
-5.3600248e-02 5.6906003e-01 4.3676846e+01 
1.2436585e-01 5.5082864e-01 4.3886215e+01 
1.7079005e-01 5.1095647e-01 4.4054855e+01 
1.4951277e-01 4.6697062e-01 4.4053665e+01 
1.0028158e-01 4.8915190e-01 4.3877911e+01 
-4.0513036e-01 8.6722642e-01 4.3405304e+01 
-3.2530096e-01 9.2064321e-01 4.3405800e+01 
-9.6616447e-02 7.7055699e-01 4.3495411e+01 
-8.4563000e-03 6.8258613e-01 4.3574005e+01 
-1.9579062e-01 8.4624058e-01 4.3431831e+01 
2.1753120e-01 4.7335833e-01 4.4200001e+01 
2.0360756e-01 4.4289169e-01 4.4200001e+01 
-1.8021962e-01 6.4559317e-01 4.3473904e+01 
-7.0636064e-02 5.7773441e-01 4.3555408e+01 
-2.8212959e-01 7.2517604e-01 4.3407806e+01 
-4.3632865e-01 9.6406716e-01 4.3343307e+01 
1.3810426e-01 5.4143524e-01 4.3628246e+01 
-3.2419339e-01 9.2096806e-01 4.3280907e+01 
-3.9903235e-01 8.5775709e-01 4.3279266e+01 
-9.2257597e-02 7.6921552e-01 4.3360443e+01 
1.1508528e-01 4.7804743e-01 4.3612068e+01 
-1.9276154e-01 8.4613472e-01 4.3295704e+01 
1.4013666e-02 6.6131532e-01 4.3426643e+01 
-1.7712323e-01 6.4207786e-01 4.3334946e+01 
-2.8066361e-01 7.2288430e-01 4.3267666e+01 
-4.3382257e-02 5.5983055e-01 4.3403778e+01 
-4.3632799e-01 9.6406323e-01 4.3218033e+01 
3.7877345e-01 3.8273901e-01 4.4200001e+01 
3.9076596e-01 3.7443376e-01 4.3993755e+01 
-3.2307580e-01 9.2128778e-01 4.3155251e+01 
-3.9906058e-01 8.5738426e-01 4.3153610e+01 
-8.7798268e-02 7.6781619e-01 4.3222996e+01 
1.9689407e-02 6.5803534e-01 4.3290459e+01 
-6.0862999e-02 5.6866169e-01 4.3278019e+01 
-1.8968078e-01 8.4602165e-01 4.3157055e+01 
-1.7394182e-01 6.3847917e-01 4.3193501e+01 
-4.3632734e-01 9.6405929e-01 4.3091995e+01 
4.0275589e-01 3.6612594e-01 4.3787510e+01 
1.2304078e-01 5.5709994e-01 4.3330139e+01 
-2.7917209e-01 7.2055119e-01 4.3125000e+01 
2.5336364e-01 4.4907436e-01 4.3468094e+01 
2.3670304e-01 4.1684708e-01 4.3469433e+01 
1.3086085e-01 4.6634668e-01 4.3336948e+01 
-3.8351217e-01 8.3473074e-01 4.3036392e+01 
-3.2194808e-01 9.2160189e-01 4.3028820e+01 
2.5518833e-02 6.5462554e-01 4.3151749e+01 
-8.3235659e-02 7.6635528e-01 4.3082981e+01 
4.1474071e-01 3.5781288e-01 4.3581264e+01 
-1.8654740e-01 8.4590012e-01 4.3015797e+01 
-3.2522827e-02 5.5011308e-01 4.3120937e+01 
-1.7067213e-01 6.3479382e-01 4.3049488e+01 
-4.3632668e-01 9.6405542e-01 4.2965172e+01 
-2.7765438e-01 7.1817529e-01 4.2979721e+01 
2.6620242e-01 4.4011977e-01 4.3261948e+01 
1.3584816e-02 6.7044950e-01 4.3025066e+01 
-3.2081014e-01 9.2191011e-01 4.2901604e+01 
-3.8160574e-01 8.3169121e-01 4.2902863e+01 
-7.8566879e-02 7.6482886e-01 4.2940315e+01 
-5.0480481e-02 5.5910730e-01 4.2990566e+01 
4.2671782e-01 3.4949207e-01 4.3375019e+01 
1.6821145e-01 5.2049083e-01 4.3083881e+01 
-1.8336046e-01 8.4576881e-01 4.2871841e+01 
-4.3632606e-01 9.6405160e-01 4.2837555e+01 
-1.6731077e-01 6.3101834e-01 4.2902817e+01 
1.4768846e-01 4.5400122e-01 4.3051926e+01 
-2.7610970e-01 7.1575516e-01 4.2831745e+01 
-3.1966189e-01 9.2221189e-01 4.2773579e+01 
-3.8560396e-01 8.3684862e-01 4.2767078e+01 
3.7660085e-02 6.4738947e-01 4.2866421e+01 
-7.3788933e-02 7.6323271e-01 4.2794899e+01 
4.3868470e-01 3.4116083e-01 4.3168777e+01 
-4.3632543e-01 9.6404779e-01 4.2709122e+01 
-2.0968946e-02 5.3986710e-01 4.2827656e+01 
-1.8011902e-01 8.4562629e-01 4.2725094e+01 
-1.6385415e-01 6.2714905e-01 4.2753403e+01 
-2.7453732e-01 7.1328926e-01 4.2680973e+01 
-3.1850323e-01 9.2250693e-01 4.2644733e+01 
-3.9907700e-01 8.5570478e-01 4.2643101e+01 
2.5504474e-02 6.6361672e-01 4.2734810e+01 
1.8471870e-01 5.0880390e-01 4.2796177e+01 
-6.8898737e-02 7.6156229e-01 4.2646645e+01 
-3.9438177e-02 5.4903054e-01 4.2692345e+01 
-4.3632481e-01 9.6404403e-01 4.2579861e+01 
4.5063871e-01 3.3281663e-01 4.2962532e+01 
1.6565691e-01 4.4095638e-01 4.2756321e+01 
-1.7682223e-01 8.4547096e-01 4.2575459e+01 
-1.6029853e-01 6.2318206e-01 4.2601143e+01 
-4.0415615e-01 8.6278629e-01 4.2516582e+01 
-3.1733403e-01 9.2279470e-01 4.2515053e+01 
-2.7293649e-01 7.1077597e-01 4.2527313e+01 
5.0482783e-02 6.3954860e-01 4.2569923e+01 
-4.3632418e-01 9.6404034e-01 4.2449757e+01 
-6.3893095e-02 7.5981271e-01 4.2495445e+01 
-8.6617703e-03 5.2904755e-01 4.2523201e+01 
-1.7346917e-01 8.4530097e-01 4.2422829e+01 
-1.5663996e-01 6.1911333e-01 4.2445942e+01 
3.0435190e-01 4.1341871e-01 4.2643494e+01 
4.6257737e-01 3.2445681e-01 4.2756287e+01 
-3.1615424e-01 9.2307472e-01 4.2384518e+01 
-3.9902648e-01 8.5475212e-01 4.2382885e+01 
-2.7130640e-01 7.0821363e-01 4.2370659e+01 
3.8079392e-02 6.5619886e-01 4.2433029e+01 
2.0230262e-01 4.9620378e-01 4.2497147e+01 
-4.3632355e-01 9.6403670e-01 4.2318787e+01 
-5.8768708e-02 7.5797862e-01 4.2341198e+01 
-2.7680276e-02 5.3838593e-01 4.2382599e+01 
1.8486446e-01 4.2715022e-01 4.2449394e+01 
-3.8436696e-01 8.3356136e-01 4.2264896e+01 
8.9545198e-02 5.3233254e-01 4.2382050e+01 
-3.3225983e-01 9.3122375e-01 4.2255634e+01 
-1.7005907e-01 8.4511453e-01 4.2267101e+01 
-1.5287429e-01 6.1493850e-01 4.2287693e+01 
4.7449806e-01 3.1607881e-01 4.2550037e+01 
-2.6964626e-01 7.0560038e-01 4.2210907e+01 
-4.3632296e-01 9.6403313e-01 4.2186939e+01 
6.4036883e-02 6.3103610e-01 4.2261456e+01 
-5.3522192e-02 7.5605446e-01 4.2183796e+01 
-3.7873057e-01 8.2541841e-01 4.2124020e+01 
-3.1376252e-01 9.2360973e-01 4.2120819e+01 
4.4639236e-03 5.1760370e-01 4.2206776e+01 
-1.6659111e-01 8.4490943e-01 4.2108162e+01 
-1.4899719e-01 6.1065292e-01 4.2126286e+01 
-4.3632239e-01 9.6402961e-01 4.2054195e+01 
4.8639825e-01 3.0768004e-01 4.2343792e+01 
-2.6795524e-01 7.0293444e-01 4.2047943e+01 
2.4746621e-01 4.6040925e-01 4.2191032e+01 
7.1105182e-02 6.2650448e-01 4.2102463e+01 
-3.1255043e-01 9.2386365e-01 4.1987617e+01 
-4.8150036e-02 7.5403398e-01 4.2023121e+01 
-1.5144684e-02 5.2712250e-01 4.2060505e+01 
-3.7995064e-01 8.2661813e-01 4.1980038e+01 
2.0541981e-01 4.1251117e-01 4.2130333e+01 
-1.6306458e-01 8.4468329e-01 4.1945896e+01 
-4.3632182e-01 9.6402621e-01 4.1920536e+01 
-1.4500406e-01 6.0625184e-01 4.1961609e+01 
1.3375351e-01 5.6370503e-01 4.1969833e+01 
-2.6623246e-01 7.0021385e-01 4.1881653e+01 
-3.1132740e-01 9.2410773e-01 4.1853493e+01 
-3.9880505e-01 8.5261923e-01 4.1851868e+01 
4.9827534e-01 2.9925787e-01 4.2137547e+01 
3.4194937e-01 3.8685825e-01 4.2025021e+01 
-4.2648647e-02 7.5191063e-01 4.1859051e+01 
-2.5401810e-01 7.9503769e-01 4.1808533e+01 
1.8480448e-02 5.0547802e-01 4.1877510e+01 
-4.3632126e-01 9.6402287e-01 4.1785946e+01 
-1.5947884e-01 8.4443361e-01 4.1780174e+01 
-1.4089009e-01 6.0172999e-01 4.1793541e+01 
-3.1009343e-01 9.2434150e-01 4.1718426e+01 
-4.0306881e-01 8.5845691e-01 4.1716179e+01 
8.5861288e-02 6.1683756e-01 4.1774368e+01 
-2.6447710e-01 6.9743657e-01 4.1711910e+01 
3.0427080e-01 4.1638452e-01 4.1839512e+01 
2.6751360e-01 3.7833902e-01 4.1830902e+01 
5.1012677e-01 2.9080975e-01 4.1931297e+01 
-3.7014309e-02 7.4967718e-01 4.1691463e+01 
-4.3632072e-01 9.6401966e-01 4.1650398e+01 
2.5847588e-02 4.9913955e-01 4.1707767e+01 
-1.5583332e-01 8.4415752e-01 4.1610870e+01 
-3.8322043e-01 8.2981020e-01 4.1595791e+01 
-3.0884841e-01 9.2456430e-01 4.1582397e+01 
-1.3665022e-01 5.9708190e-01 4.1621960e+01 
9.3565010e-02 6.1167872e-01 4.1605015e+01 
-2.6268822e-01 6.9460052e-01 4.1538593e+01 
-4.3632022e-01 9.6401656e-01 4.1513885e+01 
-3.1243213e-02 7.4732590e-01 4.1520226e+01 
2.7603787e-01 3.7115356e-01 4.1624012e+01 
2.8505871e-01 4.3281260e-01 4.1611507e+01 
5.2195001e-01 2.8233302e-01 4.1725052e+01 
3.3468332e-02 4.9260557e-01 4.1534447e+01 
-3.9853087e-01 8.5081697e-01 4.1443768e+01 
-3.2560509e-01 9.3245691e-01 4.1443577e+01 
-1.5212752e-01 8.4385180e-01 4.1437847e+01 
-1.3227913e-01 5.9230179e-01 4.1446728e+01 
-4.3631971e-01 9.6401358e-01 4.1376381e+01 
[...]
POINT_DATA 6166
FIELD FieldData 5
DISPLACEMENT 3 6166  float
6.2811777e-02 5.6069702e-02 -1.0274843e-04 
6.2426627e-02 5.5688147e-02 -1.0152335e-04 
6.2810533e-02 5.6067333e-02 -3.0769926e-04 
6.2809944e-02 5.6069162e-02 1.2547692e-04 
6.2232573e-02 5.5494826e-02 -2.9593930e-04 
6.2247653e-02 5.5512141e-02 1.2994498e-04 
6.2039338e-02 5.5304479e-02 -1.0028912e-04 
6.2809125e-02 5.6065179e-02 -4.4583707e-04 
6.2808134e-02 5.6067500e-02 1.4677612e-04 
6.2416632e-02 5.5676304e-02 -4.5310712e-04 
6.2402826e-02 5.5665992e-02 1.5037179e-04 
6.1844204e-02 5.5110063e-02 -2.9919605e-04 
6.1816465e-02 5.5084970e-02 1.2964544e-04 
6.2017485e-02 5.5280838e-02 -4.6049381e-04 
6.1649878e-02 5.4918658e-02 -9.9046010e-05 
6.2807716e-02 5.6063339e-02 -5.2669994e-04 
6.1990857e-02 5.5257887e-02 1.5402283e-04 
6.2806658e-02 5.6065671e-02 7.8321405e-05 
6.2205900e-02 5.5467073e-02 -5.3718785e-04 
6.2187016e-02 5.5451840e-02 8.4380525e-05 
6.1453644e-02 5.4723132e-02 -3.0245859e-04 
6.1419960e-02 5.4692164e-02 1.3001115e-04 
6.1611485e-02 5.4878581e-02 -4.6799495e-04 
6.1572026e-02 5.4842982e-02 1.5772677e-04 
6.1258208e-02 5.4530650e-02 -9.7794975e-05 
6.1803136e-02 5.5068020e-02 -5.4504076e-04 
6.2806033e-02 5.6061611e-02 -5.3989212e-04 
6.1771479e-02 5.5040196e-02 8.6948348e-05 
6.2805139e-02 5.6063406e-02 -6.1120656e-05 
6.1060857e-02 5.4333996e-02 -3.0572424e-04 
6.1055191e-02 5.4330725e-02 1.1694492e-04 
6.1198410e-02 5.4469325e-02 -4.7560729e-04 
6.1998371e-02 5.5261407e-02 -5.5142189e-04 
6.1393403e-02 5.4662064e-02 -5.5301050e-04 
6.1146110e-02 5.4421071e-02 1.6148126e-04 
6.1975010e-02 5.5240966e-02 -6.9579699e-05 
6.2345885e-02 5.5605739e-02 -5.4300268e-04 
6.1348967e-02 5.4621644e-02 8.9516543e-05 
6.0864296e-02 5.4140430e-02 -9.6538031e-05 
6.2341247e-02 5.5603348e-02 -1.4984459e-04 
6.1634555e-02 5.4900929e-02 -5.6048151e-04 
6.1599437e-02 5.4869056e-02 -4.2235111e-05 
6.2804133e-02 5.6059644e-02 -5.5880146e-04 
6.2803522e-02 5.6060739e-02 -2.5431527e-04 
6.0665812e-02 5.3942639e-02 -3.0899778e-04 
6.0660135e-02 5.3939391e-02 1.1935190e-04 
6.0778048e-02 5.4052856e-02 -4.8332842e-04 
6.0976487e-02 5.4248996e-02 -5.6108972e-04 
6.0712900e-02 5.3991936e-02 1.6529419e-04 
6.0919255e-02 5.4195978e-02 9.2097827e-05 
6.0468096e-02 5.3747971e-02 -9.5258452e-05 
6.1178815e-02 5.4449428e-02 -5.6374061e-04 
6.1130032e-02 5.4403890e-02 -6.9913985e-05 
6.1799094e-02 5.5063814e-02 -5.8385864e-04 
6.2338192e-02 5.5597767e-02 -6.0772378e-04 
6.2333927e-02 5.5594705e-02 -4.0010354e-04 
6.1771836e-02 5.5038348e-02 -3.1108435e-04 
6.0266618e-02 5.3549536e-02 1.1251902e-04 
6.0268465e-02 5.3549014e-02 -3.1225709e-04 
6.0552157e-02 5.3828601e-02 -5.6927482e-04 
6.0802121e-02 5.4076191e-02 -5.7333824e-04 
6.0350168e-02 5.3628948e-02 -4.9115520e-04 
6.2802106e-02 5.6057204e-02 -6.3957402e-04 
6.2801786e-02 5.6057677e-02 -4.9837778e-04 
6.0482133e-02 5.3762976e-02 9.4664429e-05 
6.0741540e-02 5.4019202e-02 -4.1697498e-05 
6.0272176e-02 5.3555381e-02 1.6913936e-04 
6.0069606e-02 5.3353235e-02 -9.3988150e-05 
6.0973112e-02 5.4245472e-02 -5.9543067e-04 
5.9868809e-02 5.3153135e-02 -3.1554405e-04 
5.9863139e-02 5.3149942e-02 1.2424603e-04 
6.0120199e-02 5.3400654e-02 -5.7755678e-04 
6.0920607e-02 5.4195020e-02 -3.2059423e-04 
5.9914540e-02 5.3197399e-02 -4.9907248e-04 
6.0330085e-02 5.3608570e-02 -5.7629618e-04 
6.0037378e-02 5.3322431e-02 9.7221979e-05 
5.9823696e-02 5.3111151e-02 1.7306018e-04 
6.0255852e-02 5.3537928e-02 -7.0680762e-05 
5.9668768e-02 5.2956205e-02 -9.2694201e-05 
6.2800117e-02 5.6053963e-02 -8.6833397e-04 
6.2139701e-02 5.5399619e-02 -8.7829848e-04 
5.9466787e-02 5.2754890e-02 -3.1882452e-04 
5.9461143e-02 5.2751757e-02 1.2673864e-04 
5.9680369e-02 5.2964948e-02 -5.8592827e-04 
5.9894219e-02 5.3176772e-02 -5.8263133e-04 
5.9853658e-02 5.3139701e-02 -4.1547413e-05 
5.9470914e-02 5.2757964e-02 -5.0706946e-04 
5.9584767e-02 5.2874126e-02 9.9769139e-05 
5.9265543e-02 5.2556843e-02 -9.1394293e-05 
6.1479285e-02 5.4745294e-02 -8.8824000e-04 
6.0019284e-02 5.3300589e-02 -5.9380045e-04 
5.9367239e-02 5.2659072e-02 1.7701686e-04 
6.0458682e-02 5.3735450e-02 -6.6983735e-04 
6.0462631e-02 5.3740237e-02 -5.1435136e-04 
6.0039811e-02 5.3322442e-02 -3.3122668e-04 
5.9085812e-02 5.2380159e-02 1.4989104e-04 
5.9062373e-02 5.2354347e-02 -3.2206331e-04 
5.9450366e-02 5.2737113e-02 -5.8902457e-04 
5.9232421e-02 5.2521236e-02 -5.9439527e-04 
6.0818925e-02 5.4091047e-02 -8.9812739e-04 
5.9019070e-02 5.2310407e-02 -5.1520404e-04 
5.9350681e-02 5.2641369e-02 -7.1943978e-05 
5.9124012e-02 5.2417815e-02 1.0234288e-04 
5.8859929e-02 5.2155133e-02 -9.0070134e-05 
5.8902547e-02 5.2198853e-02 1.8102376e-04 
5.9798799e-02 5.3081699e-02 -6.8034913e-04 
5.9045438e-02 5.2335992e-02 -5.9965020e-04 
5.8655530e-02 5.1951449e-02 -3.2531843e-04 
5.8658727e-02 5.1957235e-02 1.5471524e-04 
5.8776096e-02 5.2069265e-02 -6.0293858e-04 
5.8933932e-02 5.2228790e-02 -4.1793817e-05 
6.0158700e-02 5.3436905e-02 -9.0787490e-04 
5.9230689e-02 5.2519351e-02 -6.1976613e-04 
5.8558717e-02 5.1854473e-02 -5.2340061e-04 
5.8451839e-02 5.1751025e-02 -8.8719316e-05 
5.8654916e-02 5.1953271e-02 1.0485369e-04 
5.9127685e-02 5.2418951e-02 -3.4319062e-04 
5.8429342e-02 5.1730298e-02 1.8507161e-04 
5.8246210e-02 5.1546134e-02 -3.2855029e-04 
5.8224726e-02 5.1527437e-02 1.5242629e-04 
5.8537677e-02 5.1833160e-02 -6.0190092e-04 
5.8311142e-02 5.1608793e-02 -6.1155198e-04 
5.9498511e-02 5.2782875e-02 -9.1759465e-04 
5.8041289e-02 5.1344551e-02 -8.7388391e-05 
5.8412571e-02 5.1712349e-02 -7.3707233e-05 
5.8089606e-02 5.1389936e-02 -5.3165387e-04 
5.8177151e-02 5.1480234e-02 1.0740088e-04 
5.7947431e-02 5.1253159e-02 1.8912985e-04 
5.7834454e-02 5.1138435e-02 -3.3174100e-04 
5.7828873e-02 5.1135425e-02 1.3695084e-04 
5.8117274e-02 5.1416781e-02 -6.1297364e-04 
5.8310419e-02 5.1607918e-02 -6.3255912e-04 
5.7837296e-02 5.1139582e-02 -6.2018848e-04 
5.7980333e-02 5.1284540e-02 -4.2471758e-05 
5.7628319e-02 5.0935693e-02 -8.6083273e-05 
5.8838654e-02 5.2129325e-02 -9.2722039e-04 
5.8182213e-02 5.1482558e-02 -3.5649198e-04 
5.7611503e-02 5.0916582e-02 -5.3996372e-04 
5.7690591e-02 5.0998505e-02 1.0983732e-04 
5.7424814e-02 5.0735436e-02 1.3192400e-04 
5.7420231e-02 5.0728429e-02 -3.3498392e-04 
5.7456557e-02 5.0767187e-02 1.9328280e-04 
5.7590023e-02 5.0894778e-02 -6.1478233e-04 
5.7212822e-02 5.0524414e-02 -8.4714135e-05 
5.7354368e-02 5.0661482e-02 -6.2886259e-04 
5.7439599e-02 5.0749071e-02 -7.6129138e-05 
5.7124108e-02 5.0434098e-02 -5.4833043e-04 
5.7194971e-02 5.0507888e-02 1.1236568e-04 
5.7820685e-02 5.1122587e-02 -7.1129878e-04 
5.8179174e-02 5.1476277e-02 -9.3672029e-04 
5.7003457e-02 5.0315827e-02 -3.3821355e-04 
5.6997918e-02 5.0312877e-02 1.4211165e-04 
5.6956399e-02 5.0272159e-02 1.9750089e-04 
5.7153229e-02 5.0462373e-02 -6.2634674e-04 
5.7354823e-02 5.0661795e-02 -6.4570049e-04 
5.6794796e-02 5.0110668e-02 -8.3392450e-05 
5.6861915e-02 5.0174028e-02 -6.3764740e-04 
5.6990966e-02 5.0305191e-02 -4.3716882e-05 
5.7201490e-02 5.0511636e-02 -3.7127736e-04 
5.6621101e-02 4.9940050e-02 1.6323035e-04 
5.6988508e-02 5.0300661e-02 -3.9869634e-04 
5.6592431e-02 4.9909189e-02 -3.1107772e-04 
5.6627125e-02 4.9942192e-02 -5.5675075e-04 
5.6689799e-02 5.0007977e-02 1.1475388e-04 
5.7520002e-02 5.0823521e-02 -9.4597891e-04 
5.6446683e-02 4.9767792e-02 2.0167201e-04 
5.6374285e-02 4.9694575e-02 -8.2042767e-05 
5.6605119e-02 4.9919896e-02 -6.2771793e-04 
5.6359760e-02 4.9677014e-02 -6.4641540e-04 
5.6171708e-02 4.9495496e-02 1.7219054e-04 
5.6162391e-02 4.9483474e-02 -3.4446578e-04 
5.6429427e-02 4.9749315e-02 -7.9191166e-05 
5.6120303e-02 4.9440648e-02 -5.6528341e-04 
5.6174893e-02 4.9498539e-02 1.1722237e-04 
5.5951189e-02 4.9275961e-02 -8.0633188e-05 
5.6861263e-02 5.0171472e-02 -9.5512124e-04 
5.5927120e-02 4.9253777e-02 2.0591491e-04 
5.6377131e-02 4.9694058e-02 -6.7350711e-04 
5.6098089e-02 4.9418069e-02 -6.3419249e-04 
5.5737939e-02 4.9063642e-02 -3.4759167e-04 
5.5847544e-02 4.9170185e-02 -6.5514032e-04 
5.5963326e-02 4.9288370e-02 -4.5565495e-05 
5.5712875e-02 4.9041640e-02 1.7353595e-04 
5.6183115e-02 4.9503718e-02 -3.8763369e-04 
5.5603299e-02 4.8929136e-02 -5.7376688e-04 
5.5525381e-02 4.8854828e-02 -7.9175785e-05 
5.5650067e-02 4.8979431e-02 1.1950600e-04 
5.5674221e-02 4.8998825e-02 -6.3427718e-04 
5.5397477e-02 4.8729997e-02 2.1012817e-04 
5.5310875e-02 4.8641291e-02 -3.5060503e-04 
5.5305310e-02 4.8638426e-02 1.5265771e-04 
5.6203354e-02 4.9520481e-02 -9.6406823e-04 
5.5846497e-02 4.9168646e-02 -7.4066460e-04 
5.5325091e-02 4.8653360e-02 -6.6381978e-04 
5.5165946e-02 4.8499178e-02 -1.2641112e-04 
5.5379927e-02 4.8711151e-02 -8.3046783e-05 
5.5097103e-02 4.8431415e-02 -7.7726851e-05 
5.5075940e-02 4.8407648e-02 -5.8201852e-04 
5.5115122e-02 4.8450440e-02 1.2158833e-04 
5.4881278e-02 4.8216570e-02 -3.5360822e-04 
5.4873914e-02 4.8211999e-02 1.4886180e-04 
5.5053093e-02 4.8384428e-02 -6.4661977e-04 
5.4857515e-02 4.8196249e-02 2.1426969e-04 
5.5256192e-02 4.8584912e-02 -7.1178150e-04 
5.5228405e-02 4.8558861e-02 -4.7500810e-04 
5.5545744e-02 4.8869729e-02 -9.7267062e-04 
5.4792203e-02 4.8126403e-02 -6.7239010e-04 
5.4666266e-02 4.8005607e-02 -7.6430253e-05 
5.4839905e-02 4.8177283e-02 -8.5452477e-05 
5.4537989e-02 4.7875799e-02 -5.9031881e-04 
5.4490980e-02 4.7833718e-02 1.7650450e-04 
5.4449305e-02 4.7789648e-02 -3.5643514e-04 
5.4569591e-02 4.7911346e-02 1.2387711e-04 
5.4514915e-02 4.7852341e-02 -6.5291545e-04 
5.4307111e-02 4.7652327e-02 2.1851750e-04 
5.4233171e-02 4.7577515e-02 -7.5081298e-05 
5.4248363e-02 4.7588926e-02 -6.8089971e-04 
5.4570492e-02 4.7908455e-02 -4.7756184e-04 
5.4531638e-02 4.7868647e-02 -6.9968344e-04 
5.4889198e-02 4.8220433e-02 -9.8100735e-04 
5.4289240e-02 4.7633126e-02 -8.7968241e-05 
5.4009303e-02 4.7357533e-02 1.6042021e-04 
5.4009303e-02 4.7354911e-02 -3.2637850e-04 
5.3988960e-02 4.7333386e-02 -5.9870572e-04 
5.4013453e-02 4.7361948e-02 1.2589824e-04 
5.3797267e-02 4.7146916e-02 -7.3565323e-05 
5.4045204e-02 4.7388270e-02 -6.5251574e-04 
5.3745762e-02 4.7097884e-02 2.2265689e-04 
5.3693488e-02 4.7040753e-02 -6.8935362e-04 
5.3577613e-02 4.6928495e-02 -3.6228407e-04 
5.3571898e-02 4.6925716e-02 1.6308583e-04 
5.3727731e-02 4.7078528e-02 -9.0775618e-05 
5.3945221e-02 4.7290556e-02 -5.0138257e-04 
5.4233838e-02 4.7572616e-02 -9.8912942e-04 
5.3428788e-02 4.6780080e-02 -6.0699362e-04 
5.3844988e-02 4.7190133e-02 -7.2635105e-04 
5.3358689e-02 4.6714000e-02 -7.1852919e-05 
5.3446263e-02 4.6801914e-02 1.2785301e-04 
5.3467099e-02 4.6817355e-02 -6.5829576e-04 
5.3137675e-02 4.6494290e-02 -3.6501291e-04 
5.3131972e-02 4.6491709e-02 1.6578681e-04 
5.3173237e-02 4.6532732e-02 2.2688269e-04 
5.3127129e-02 4.6481520e-02 -6.9775770e-04 
5.3155039e-02 4.6513207e-02 -9.3822586e-05 
5.2917514e-02 4.6278771e-02 -7.0342714e-05 
5.3318400e-02 4.6671800e-02 -4.8389018e-04 
5.3579759e-02 4.6926413e-02 -9.9684228e-04 
5.2856900e-02 4.6215583e-02 -6.1522075e-04 
5.2867647e-02 4.6230961e-02 1.2974472e-04 
5.3210363e-02 4.6563487e-02 -7.3937949e-04 
5.2695181e-02 4.6057634e-02 -3.6765586e-04 
5.2689563e-02 4.6055224e-02 1.6844946e-04 
5.2865110e-02 4.6223175e-02 -6.6470221e-04 
5.2589085e-02 4.5956556e-02 2.3111838e-04 
5.2473802e-02 4.5841008e-02 -6.8958827e-05 
5.2548848e-02 4.5910940e-02 -7.0605584e-04 
5.2570727e-02 4.5936745e-02 -9.7126824e-05 
5.2250229e-02 4.5618787e-02 -3.7029834e-04 
5.2244511e-02 4.5616172e-02 1.7127529e-04 
5.2272905e-02 4.5639608e-02 -6.2347169e-04 
5.2927073e-02 4.6281949e-02 -1.0041648e-03 
5.2277241e-02 4.5648798e-02 1.3154633e-04 
5.2578848e-02 4.5942176e-02 -4.6714270e-04 
5.2581046e-02 4.5942359e-02 -7.5324363e-04 
5.2027367e-02 4.5400843e-02 -6.7252964e-05 
5.2253459e-02 4.5619819e-02 -6.7078572e-04 
5.1992994e-02 4.5369010e-02 2.3521125e-04 
5.1958419e-02 4.5328729e-02 -7.1409903e-04 
5.2065048e-02 4.5437872e-02 -1.4254480e-04 
5.1802259e-02 4.5177292e-02 -3.7290659e-04 
5.1796809e-02 4.5175146e-02 1.7365656e-04 
5.1676601e-02 4.5051843e-02 -6.3142774e-04 
5.2275717e-02 4.5639124e-02 -1.0117268e-03 
5.1578343e-02 4.4958629e-02 -6.6070141e-05 
5.1674917e-02 4.5055225e-02 1.3326059e-04 
5.1942587e-02 4.5312688e-02 -7.5844268e-04 
5.1871184e-02 4.5243971e-02 -5.2244723e-04 
5.1639955e-02 4.5015000e-02 -6.7628146e-04 
5.1351991e-02 4.4733811e-02 -3.7570961e-04 
5.1346280e-02 4.4731561e-02 1.7618953e-04 
5.1384922e-02 4.4769976e-02 2.3956520e-04 
5.1355544e-02 4.4734672e-02 -7.2193122e-04 
5.1457517e-02 4.4839017e-02 -1.7468537e-04 
5.1126514e-02 4.4513669e-02 -6.4680731e-05 
5.1067986e-02 4.4452224e-02 -6.3921011e-04 
5.1048089e-02 4.4436008e-02 -1.2886162e-04 
5.1625978e-02 4.4998620e-02 -1.0187773e-03 
5.1060282e-02 4.4449963e-02 1.3487012e-04 
5.1310979e-02 4.4690210e-02 -7.5354171e-04 
5.0898924e-02 4.4287723e-02 -3.7788835e-04 
5.0893068e-02 4.4285223e-02 1.7890394e-04 
5.1021397e-02 4.4405688e-02 -6.8242755e-04 
5.1226508e-02 4.4608522e-02 -5.4975599e-04 
5.0764233e-02 4.4158999e-02 2.4363668e-04 
5.0672133e-02 4.4066317e-02 -6.2892686e-05 
5.0739784e-02 4.4128351e-02 -7.2968798e-04 
5.0827533e-02 4.4218827e-02 -1.8245258e-04 
5.0443009e-02 4.3839019e-02 -3.8046218e-04 
5.0437562e-02 4.3837007e-02 1.8143828e-04 
5.0445657e-02 4.3839939e-02 -6.4672425e-04 
5.0977450e-02 4.4359587e-02 -1.0256011e-03 
5.0432887e-02 4.3832637e-02 1.3629414e-04 
5.0676826e-02 4.4065710e-02 -7.5812970e-04 
5.0214957e-02 4.3616712e-02 -6.1540333e-05 
5.0394796e-02 4.3789066e-02 -6.8827398e-04 
5.0594926e-02 4.3986533e-02 -5.8473187e-04 
5.0118133e-02 4.3520398e-02 -2.7563947e-04 
5.0130557e-02 4.3535873e-02 2.4806662e-04 
5.0110608e-02 4.3509427e-02 -7.3709321e-04 
4.9984526e-02 4.3388437e-02 -3.8296409e-04 
5.0177567e-02 4.3579400e-02 -2.0331533e-04 
4.9923159e-02 4.3331467e-02 2.0583888e-04 
4.9810201e-02 4.3215077e-02 -6.5427693e-04 
4.9754869e-02 4.3164633e-02 -5.9956863e-05 
5.0331142e-02 4.3723565e-02 -1.0318565e-03 
4.9795005e-02 4.3205421e-02 1.0324047e-04 
5.0021458e-02 4.3421317e-02 -7.5533410e-04 
4.9780447e-02 4.3184850e-02 -6.9687731e-04 
4.9985014e-02 4.3386322e-02 -6.5022055e-04 
4.9524620e-02 4.2936582e-02 -3.8326846e-04 
4.9519081e-02 4.2934429e-02 1.8603985e-04 
4.9483642e-02 4.2900134e-02 2.5228487e-04 
4.9470775e-02 4.2880680e-02 -7.4397132e-04 
4.9295407e-02 4.2713221e-02 -5.8541456e-05 
4.9402773e-02 4.2817906e-02 -2.1557671e-04 
4.9166083e-02 4.2582456e-02 -6.6158257e-04 
4.9687404e-02 4.3090768e-02 -1.0374028e-03 
4.9066700e-02 4.2486627e-02 -3.8220038e-04 
4.9061451e-02 4.2484805e-02 1.8720153e-04 
4.9147330e-02 4.2569421e-02 1.4432565e-04 
4.9342308e-02 4.2754769e-02 -6.5650919e-04 
4.9237695e-02 4.2651225e-02 -7.6537696e-04 
4.9026333e-02 4.2444333e-02 -7.0262508e-04 
4.8839152e-02 4.2265080e-02 -5.7330300e-05 
4.8839901e-02 4.2267963e-02 2.5683086e-04 
4.8832379e-02 4.2253762e-02 -7.5114245e-04 
4.8801437e-02 4.2228363e-02 -1.0015460e-04 
4.8612308e-02 4.2040575e-02 -3.8076440e-04 
4.8581146e-02 4.2013314e-02 2.1287535e-04 
4.8532803e-02 4.1960601e-02 -6.6846720e-04 
4.9045339e-02 4.2460177e-02 -1.0427841e-03 
4.8508365e-02 4.1942410e-02 1.5184219e-04 
4.8386160e-02 4.1820556e-02 -5.5775490e-05 
4.8487529e-02 4.1915260e-02 -7.1047450e-04 
4.8645128e-02 4.2071734e-02 -4.9738586e-04 
4.8700448e-02 4.2123593e-02 -8.2772248e-04 
4.8440769e-02 4.1869346e-02 -7.1702834e-04 
4.8205968e-02 4.1646004e-02 2.6070516e-04 
4.8160776e-02 4.1597657e-02 -3.7915533e-04 
4.8155755e-02 4.1595981e-02 1.8935044e-04 
4.8204724e-02 4.1637480e-02 -7.5752026e-04 
4.8167810e-02 4.1606806e-02 -8.6122163e-05 
4.7936574e-02 4.1379794e-02 -5.4462551e-05 
4.7910210e-02 4.1349679e-02 -6.7443552e-04 
4.8405372e-02 4.1832201e-02 -1.0486916e-03 
4.7879532e-02 4.1325781e-02 1.5888267e-04 
4.7758348e-02 4.1206688e-02 2.2180384e-04 
4.7713216e-02 4.1158915e-02 -3.7721463e-04 
4.7865655e-02 4.1304924e-02 -7.1721384e-04 
4.8061520e-02 4.1496560e-02 -8.3352462e-04 
4.8061755e-02 4.1497942e-02 -6.6845393e-04 
4.7582082e-02 4.1034341e-02 2.6445597e-04 
4.7819249e-02 4.1262221e-02 -3.7869089e-04 
4.7587547e-02 4.1032329e-02 -7.6329883e-04 
4.7490761e-02 4.0942606e-02 -5.2924985e-05 
4.7713727e-02 4.1155905e-02 -7.2262267e-04 
4.7544390e-02 4.0995792e-02 -7.2716553e-05 
4.7268756e-02 4.0723119e-02 -3.7549794e-04 
4.7297902e-02 4.0749691e-02 -6.8025553e-04 
4.7766253e-02 4.1204963e-02 -1.0531436e-03 
4.7260668e-02 4.0719494e-02 1.6556485e-04 
4.7182083e-02 4.0642031e-02 2.2977126e-04 
4.7254320e-02 4.0705886e-02 -7.2354497e-04 
4.7047585e-02 4.0508788e-02 -5.1655494e-05 
4.7423847e-02 4.0870763e-02 -8.3905051e-04 
4.7423881e-02 4.0872015e-02 -6.7420426e-04 
4.6967912e-02 4.0433075e-02 2.6810003e-04 
4.6980757e-02 4.0438071e-02 -7.6857663e-04 
4.6827361e-02 4.0291242e-02 -3.7325846e-04 
4.6822641e-02 4.0289775e-02 1.9227758e-04 
4.7078043e-02 4.0536493e-02 -3.3500258e-04 
4.7078408e-02 4.0533368e-02 -7.2650216e-04 
4.6930905e-02 4.0395234e-02 -5.9959191e-05 
4.6735071e-02 4.0202875e-02 -6.4068292e-05 
4.6696171e-02 4.0160730e-02 -6.8535615e-04 
4.6608157e-02 4.0078677e-02 -5.0423285e-05 
4.7129549e-02 4.0580556e-02 -1.0573911e-03 
4.6594668e-02 4.0067568e-02 2.6425897e-04 
4.6651781e-02 4.0123526e-02 1.7176750e-04 
4.6653494e-02 4.0117677e-02 -7.2943186e-04 
4.6789110e-02 4.0249206e-02 -8.4394799e-04 
4.6788890e-02 4.0250357e-02 -6.7960093e-04 
4.6389800e-02 3.9863471e-02 -3.7091426e-04 
4.6384577e-02 3.9861452e-02 1.9294838e-04 
4.6372175e-02 3.9846934e-02 -2.0851582e-04 
4.6363294e-02 3.9841734e-02 2.7106685e-04 
4.6379510e-02 3.9853629e-02 -2.9392084e-04 
4.6384778e-02 3.9854791e-02 -7.7296444e-04 
4.6445105e-02 3.9917577e-02 -3.4157431e-04 
4.6445929e-02 3.9914601e-02 -7.2993594e-04 
4.6327617e-02 3.9805215e-02 -4.8258615e-05 
4.6172339e-02 3.9652679e-02 -4.8690064e-05 
4.6158675e-02 3.9641459e-02 2.6470405e-04 
4.6104699e-02 3.9582372e-02 -6.8920944e-04 
4.5995198e-02 3.9480854e-02 1.7344371e-04 
4.6052113e-02 3.9537568e-02 1.7788929e-04 
4.6495754e-02 3.9960291e-02 -1.0611149e-03 
4.5996536e-02 3.9480846e-02 -6.5038781e-05 
4.5955691e-02 3.9439030e-02 -3.6836122e-04 
4.6063442e-02 3.9540891e-02 -7.3535880e-04 
4.6157241e-02 3.9631560e-02 -8.4844942e-04 
4.6156812e-02 3.9632600e-02 -6.8459345e-04 
4.5740210e-02 3.9230600e-02 -4.7606540e-05 
4.5768771e-02 3.9261110e-02 2.7411972e-04 
4.5798093e-02 3.9281707e-02 -7.7687955e-04 
4.5733646e-02 3.9225191e-02 -3.5739202e-05 
4.5814998e-02 3.9301660e-02 -3.4858266e-04 
4.5816183e-02 3.9299224e-02 -7.3365134e-04 
4.5525379e-02 3.9018869e-02 -3.6609822e-04 
4.5547716e-02 3.9042715e-02 -8.7363485e-05 
4.5520168e-02 3.9017379e-02 1.9398403e-04 
4.5523111e-02 3.9014231e-02 -6.9335924e-04 
4.5462247e-02 3.8961466e-02 1.8354812e-04 
4.5865025e-02 3.9343838e-02 -1.0642227e-03 
4.5482911e-02 3.8973801e-02 -7.4013224e-04 
4.5311373e-02 3.8812157e-02 -4.5978035e-05 
4.5297761e-02 3.8800955e-02 2.6694432e-04 
4.5208555e-02 3.8709767e-02 -3.2401353e-04 
4.5222208e-02 3.8719311e-02 -7.8033417e-04 
4.5183301e-02 3.8689695e-02 2.7680886e-04 
4.5528434e-02 3.9017268e-02 -8.5244188e-04 
4.5527827e-02 3.9018143e-02 -6.8903860e-04 
4.5135889e-02 3.8640764e-02 -8.3797320e-05 
4.5119971e-02 3.8624212e-02 -2.5070622e-04 
4.5097928e-02 3.8602006e-02 -3.6358772e-04 
4.5093000e-02 3.8600858e-02 1.9475138e-04 
4.5148864e-02 3.8654737e-02 -2.4397776e-05 
4.5187391e-02 3.8689323e-02 -3.5450485e-04 
4.5188904e-02 3.8687062e-02 -7.3663553e-04 
4.4951640e-02 3.8456682e-02 -6.9660373e-04 
4.4885769e-02 3.8397454e-02 -4.4665598e-05 
4.4872351e-02 3.8386438e-02 2.6761601e-04 
4.4882316e-02 3.8396329e-02 1.8870992e-04 
4.4911943e-02 3.8416684e-02 -7.4542669e-04 
4.5237061e-02 3.8730651e-02 -1.0668336e-03 
4.4673931e-02 3.8188864e-02 -3.6105516e-04 
4.4669438e-02 3.8188092e-02 1.9544999e-04 
4.4643123e-02 3.8159546e-02 -2.2188772e-04 
4.4655830e-02 3.8167197e-02 -7.8335177e-04 
4.4607084e-02 3.8128268e-02 2.8003455e-04 
4.4901993e-02 3.8406011e-02 -8.5598667e-04 
4.4901252e-02 3.8406782e-02 -6.9310021e-04 
4.4463519e-02 3.7986107e-02 -4.3830300e-05 
4.4573098e-02 3.8093578e-02 -1.3567303e-05 
4.4450216e-02 3.7975144e-02 2.6838400e-04 