# vtk DataFile Version 4.0
vtk output
ASCII
DATASET UNSTRUCTURED_GRID
POINTS 6166 float
-4.3633327e-01 9.6409470e-01 4.4200001e+01 
-4.3633261e-01 9.6409082e-01 4.4079685e+01 
-3.2145375e-01 9.1276109e-01 4.4200001e+01 
-3.8566181e-01 8.4097892e-01 4.4200001e+01 
-3.3069235e-01 9.1895354e-01 4.4019413e+01 
-3.8473952e-01 8.3919770e-01 4.4024357e+01 
-4.3633196e-01 9.6408689e-01 4.3958702e+01 
-2.1293370e-01 8.4677851e-01 4.4200001e+01 
-2.9042658e-01 7.3813015e-01 4.4200001e+01 
-2.1019450e-01 8.4669626e-01 4.4077393e+01 
-2.8909999e-01 7.3605996e-01 4.4073399e+01 
-3.2963324e-01 9.1929907e-01 4.3898094e+01 
-3.8679782e-01 8.4179753e-01 4.3889645e+01 
-2.0740938e-01 8.4661204e-01 4.3952713e+01 
-4.3633130e-01 9.6408290e-01 4.3837040e+01 
-1.1677200e-01 7.7521002e-01 4.4200001e+01 
-2.8775173e-01 7.3395580e-01 4.3944717e+01 
-1.9365783e-01 6.6203654e-01 4.4200001e+01 
-1.1309985e-01 7.7540898e-01 4.4012005e+01 
-1.9181472e-01 6.5888047e-01 4.4006447e+01 
-3.2856464e-01 9.1964108e-01 4.3776085e+01 
-3.8823184e-01 8.4352189e-01 4.3765770e+01 
-2.0457739e-01 8.4652513e-01 4.3825886e+01 
-2.8638119e-01 7.3181647e-01 4.3813885e+01 
-4.3633065e-01 9.6407896e-01 4.3714680e+01 
-1.0911675e-01 7.7426714e-01 4.3886200e+01 
-2.1001574e-02 6.8269837e-01 4.4200001e+01 
-1.8902887e-01 6.5566909e-01 4.3876659e+01 
-7.8887597e-02 5.9015810e-01 4.4200001e+01 
-3.2748649e-01 9.1997939e-01 4.3653378e+01 
-3.9889076e-01 8.5876143e-01 4.3651733e+01 
-2.0169757e-01 8.4643483e-01 4.3696846e+01 
-7.2496021e-03 6.7325598e-01 4.3947758e+01 
-1.0504345e-01 7.7307969e-01 4.3758209e+01 
-2.8498772e-01 7.2964084e-01 4.3680840e+01 
-6.3224643e-02 5.7783771e-01 4.3940754e+01 
3.5808440e-02 6.2679136e-01 4.4056572e+01 
-1.8616955e-01 6.5238589e-01 4.3744686e+01 
-4.3632996e-01 9.6407503e-01 4.3591618e+01 
-9.8678423e-03 5.4892725e-01 4.4055367e+01 
-1.8652271e-02 6.8798620e-01 4.3834026e+01 
-7.9845116e-02 5.8636194e-01 4.3823372e+01 
8.7777540e-02 5.7885915e-01 4.4200001e+01 
5.3622175e-02 5.1732427e-01 4.4200001e+01 
-3.2639861e-01 9.2031354e-01 4.3529953e+01 
-3.9894739e-01 8.5844576e-01 4.3528313e+01 
-1.9876897e-01 8.4634024e-01 4.3565521e+01 
-1.0087753e-01 7.7184403e-01 4.3627972e+01 
-2.8357074e-01 7.2742778e-01 4.3545506e+01 
-1.8323407e-01 6.4902818e-01 4.3610458e+01 
-4.3632931e-01 9.6407109e-01 4.3467831e+01 
3.1033519e-03 6.6751039e-01 4.3691772e+01 
-5.3600248e-02 5.6906003e-01 4.3676846e+01 
1.2436585e-01 5.5082864e-01 4.3886215e+01 
1.7079005e-01 5.1095647e-01 4.4054855e+01 
1.4951277e-01 4.6697062e-01 4.4053665e+01 
1.0028158e-01 4.8915190e-01 4.3877911e+01 
-4.0513036e-01 8.6722642e-01 4.3405304e+01 
-3.2530096e-01 9.2064321e-01 4.3405800e+01 
-9.6616447e-02 7.7055699e-01 4.3495411e+01 
-8.4563000e-03 6.8258613e-01 4.3574005e+01 
-1.9579062e-01 8.4624058e-01 4.3431831e+01 
2.1753120e-01 4.7335833e-01 4.4200001e+01 
2.0360756e-01 4.4289169e-01 4.4200001e+01 
-1.8021962e-01 6.4559317e-01 4.3473904e+01 
-7.0636064e-02 5.7773441e-01 4.3555408e+01 
-2.8212959e-01 7.2517604e-01 4.3407806e+01 
-4.3632865e-01 9.6406716e-01 4.3343307e+01 
1.3810426e-01 5.4143524e-01 4.3628246e+01 
-3.2419339e-01 9.2096806e-01 4.3280907e+01 
-3.9903235e-01 8.5775709e-01 4.3279266e+01 
-9.2257597e-02 7.6921552e-01 4.3360443e+01 
1.1508528e-01 4.7804743e-01 4.3612068e+01 
-1.9276154e-01 8.4613472e-01 4.3295704e+01 
1.4013666e-02 6.6131532e-01 4.3426643e+01 
-1.7712323e-01 6.4207786e-01 4.3334946e+01 
-2.8066361e-01 7.2288430e-01 4.3267666e+01 
-4.3382257e-02 5.5983055e-01 4.3403778e+01 
-4.3632799e-01 9.6406323e-01 4.3218033e+01 
3.7877345e-01 3.8273901e-01 4.4200001e+01 
3.9076596e-01 3.7443376e-01 4.3993755e+01 
-3.2307580e-01 9.2128778e-01 4.3155251e+01 
-3.9906058e-01 8.5738426e-01 4.3153610e+01 
-8.7798268e-02 7.6781619e-01 4.3222996e+01 
1.9689407e-02 6.5803534e-01 4.3290459e+01 
-6.0862999e-02 5.6866169e-01 4.3278019e+01 
-1.8968078e-01 8.4602165e-01 4.3157055e+01 
-1.7394182e-01 6.3847917e-01 4.3193501e+01 
-4.3632734e-01 9.6405929e-01 4.3091995e+01 
4.0275589e-01 3.6612594e-01 4.3787510e+01 
1.2304078e-01 5.5709994e-01 4.3330139e+01 
-2.7917209e-01 7.2055119e-01 4.3125000e+01 
2.5336364e-01 4.4907436e-01 4.3468094e+01 
2.3670304e-01 4.1684708e-01 4.3469433e+01 
1.3086085e-01 4.6634668e-01 4.3336948e+01 
-3.8351217e-01 8.3473074e-01 4.3036392e+01 
-3.2194808e-01 9.2160189e-01 4.3028820e+01 
2.5518833e-02 6.5462554e-01 4.3151749e+01 
-8.3235659e-02 7.6635528e-01 4.3082981e+01 
4.1474071e-01 3.5781288e-01 4.3581264e+01 
-1.8654740e-01 8.4590012e-01 4.3015797e+01 
-3.2522827e-02 5.5011308e-01 4.3120937e+01 
-1.7067213e-01 6.3479382e-01 4.3049488e+01 
-4.3632668e-01 9.6405542e-01 4.2965172e+01 
-2.7765438e-01 7.1817529e-01 4.2979721e+01 
2.6620242e-01 4.4011977e-01 4.3261948e+01 
1.3584816e-02 6.7044950e-01 4.3025066e+01 
-3.2081014e-01 9.2191011e-01 4.2901604e+01 
-3.8160574e-01 8.3169121e-01 4.2902863e+01 
-7.8566879e-02 7.6482886e-01 4.2940315e+01 
-5.0480481e-02 5.5910730e-01 4.2990566e+01 
4.2671782e-01 3.4949207e-01 4.3375019e+01 
1.6821145e-01 5.2049083e-01 4.3083881e+01 
-1.8336046e-01 8.4576881e-01 4.2871841e+01 
-4.3632606e-01 9.6405160e-01 4.2837555e+01 
-1.6731077e-01 6.3101834e-01 4.2902817e+01 
1.4768846e-01 4.5400122e-01 4.3051926e+01 
-2.7610970e-01 7.1575516e-01 4.2831745e+01 
-3.1966189e-01 9.2221189e-01 4.2773579e+01 
-3.8560396e-01 8.3684862e-01 4.2767078e+01 
3.7660085e-02 6.4738947e-01 4.2866421e+01 
-7.3788933e-02 7.6323271e-01 4.2794899e+01 
4.3868470e-01 3.4116083e-01 4.3168777e+01 
-4.3632543e-01 9.6404779e-01 4.2709122e+01 
-2.0968946e-02 5.3986710e-01 4.2827656e+01 
-1.8011902e-01 8.4562629e-01 4.2725094e+01 
-1.6385415e-01 6.2714905e-01 4.2753403e+01 
-2.7453732e-01 7.1328926e-01 4.2680973e+01 
-3.1850323e-01 9.2250693e-01 4.2644733e+01 
-3.9907700e-01 8.5570478e-01 4.2643101e+01 
2.5504474e-02 6.6361672e-01 4.2734810e+01 
1.8471870e-01 5.0880390e-01 4.2796177e+01 
-6.8898737e-02 7.6156229e-01 4.2646645e+01 
-3.9438177e-02 5.4903054e-01 4.2692345e+01 
-4.3632481e-01 9.6404403e-01 4.2579861e+01 
4.5063871e-01 3.3281663e-01 4.2962532e+01 
1.6565691e-01 4.4095638e-01 4.2756321e+01 
-1.7682223e-01 8.4547096e-01 4.2575459e+01 
-1.6029853e-01 6.2318206e-01 4.2601143e+01 
-4.0415615e-01 8.6278629e-01 4.2516582e+01 
-3.1733403e-01 9.2279470e-01 4.2515053e+01 
-2.7293649e-01 7.1077597e-01 4.2527313e+01 
5.0482783e-02 6.3954860e-01 4.2569923e+01 
-4.3632418e-01 9.6404034e-01 4.2449757e+01 
-6.3893095e-02 7.5981271e-01 4.2495445e+01 
-8.6617703e-03 5.2904755e-01 4.2523201e+01 
-1.7346917e-01 8.4530097e-01 4.2422829e+01 
-1.5663996e-01 6.1911333e-01 4.2445942e+01 
3.0435190e-01 4.1341871e-01 4.2643494e+01 
4.6257737e-01 3.2445681e-01 4.2756287e+01 
-3.1615424e-01 9.2307472e-01 4.2384518e+01 
-3.9902648e-01 8.5475212e-01 4.2382885e+01 
-2.7130640e-01 7.0821363e-01 4.2370659e+01 
3.8079392e-02 6.5619886e-01 4.2433029e+01 
2.0230262e-01 4.9620378e-01 4.2497147e+01 
-4.3632355e-01 9.6403670e-01 4.2318787e+01 
-5.8768708e-02 7.5797862e-01 4.2341198e+01 
-2.7680276e-02 5.3838593e-01 4.2382599e+01 
1.8486446e-01 4.2715022e-01 4.2449394e+01 
-3.8436696e-01 8.3356136e-01 4.2264896e+01 
8.9545198e-02 5.3233254e-01 4.2382050e+01 
-3.3225983e-01 9.3122375e-01 4.2255634e+01 
-1.7005907e-01 8.4511453e-01 4.2267101e+01 
-1.5287429e-01 6.1493850e-01 4.2287693e+01 
4.7449806e-01 3.1607881e-01 4.2550037e+01 
-2.6964626e-01 7.0560038e-01 4.2210907e+01 
-4.3632296e-01 9.6403313e-01 4.2186939e+01 
6.4036883e-02 6.3103610e-01 4.2261456e+01 
-5.3522192e-02 7.5605446e-01 4.2183796e+01 
-3.7873057e-01 8.2541841e-01 4.2124020e+01 
-3.1376252e-01 9.2360973e-01 4.2120819e+01 
4.4639236e-03 5.1760370e-01 4.2206776e+01 
-1.6659111e-01 8.4490943e-01 4.2108162e+01 
-1.4899719e-01 6.1065292e-01 4.2126286e+01 
-4.3632239e-01 9.6402961e-01 4.2054195e+01 
4.8639825e-01 3.0768004e-01 4.2343792e+01 
-2.6795524e-01 7.0293444e-01 4.2047943e+01 
2.4746621e-01 4.6040925e-01 4.2191032e+01 
7.1105182e-02 6.2650448e-01 4.2102463e+01 
-3.1255043e-01 9.2386365e-01 4.1987617e+01 
-4.8150036e-02 7.5403398e-01 4.2023121e+01 
-1.5144684e-02 5.2712250e-01 4.2060505e+01 
-3.7995064e-01 8.2661813e-01 4.1980038e+01 
2.0541981e-01 4.1251117e-01 4.2130333e+01 
-1.6306458e-01 8.4468329e-01 4.1945896e+01 
-4.3632182e-01 9.6402621e-01 4.1920536e+01 
-1.4500406e-01 6.0625184e-01 4.1961609e+01 
1.3375351e-01 5.6370503e-01 4.1969833e+01 
-2.6623246e-01 7.0021385e-01 4.1881653e+01 
-3.1132740e-01 9.2410773e-01 4.1853493e+01 
-3.9880505e-01 8.5261923e-01 4.1851868e+01 
4.9827534e-01 2.9925787e-01 4.2137547e+01 
3.4194937e-01 3.8685825e-01 4.2025021e+01 
-4.2648647e-02 7.5191063e-01 4.1859051e+01 
-2.5401810e-01 7.9503769e-01 4.1808533e+01 
1.8480448e-02 5.0547802e-01 4.1877510e+01 
-4.3632126e-01 9.6402287e-01 4.1785946e+01 
-1.5947884e-01 8.4443361e-01 4.1780174e+01 
-1.4089009e-01 6.0172999e-01 4.1793541e+01 
-3.1009343e-01 9.2434150e-01 4.1718426e+01 
-4.0306881e-01 8.5845691e-01 4.1716179e+01 
8.5861288e-02 6.1683756e-01 4.1774368e+01 
-2.6447710e-01 6.9743657e-01 4.1711910e+01 
3.0427080e-01 4.1638452e-01 4.1839512e+01 
2.6751360e-01 3.7833902e-01 4.1830902e+01 
5.1012677e-01 2.9080975e-01 4.1931297e+01 
-3.7014309e-02 7.4967718e-01 4.1691463e+01 
-4.3632072e-01 9.6401966e-01 4.1650398e+01 
2.5847588e-02 4.9913955e-01 4.1707767e+01 
-1.5583332e-01 8.4415752e-01 4.1610870e+01 
-3.8322043e-01 8.2981020e-01 4.1595791e+01 
-3.0884841e-01 9.2456430e-01 4.1582397e+01 
-1.3665022e-01 5.9708190e-01 4.1621960e+01 
9.3565010e-02 6.1167872e-01 4.1605015e+01 
-2.6268822e-01 6.9460052e-01 4.1538593e+01 
-4.3632022e-01 9.6401656e-01 4.1513885e+01 
-3.1243213e-02 7.4732590e-01 4.1520226e+01 
2.7603787e-01 3.7115356e-01 4.1624012e+01 
2.8505871e-01 4.3281260e-01 4.1611507e+01 
5.2195001e-01 2.8233302e-01 4.1725052e+01 
3.3468332e-02 4.9260557e-01 4.1534447e+01 
-3.9853087e-01 8.5081697e-01 4.1443768e+01 
-3.2560509e-01 9.3245691e-01 4.1443577e+01 
-1.5212752e-01 8.4385180e-01 4.1437847e+01 
-1.3227913e-01 5.9230179e-01 4.1446728e+01 
-4.3631971e-01 9.6401358e-01 4.1376381e+01 
[...]
POINT_DATA 6166
FIELD FieldData 5
DISPLACEMENT 3 6166  float
2.7079394e-01 2.4604313e-01 -2.8089904e-03 
2.6936352e-01 2.4460162e-01 -2.7918904e-03 
2.7084616e-01 2.4616590e-01 -3.5620008e-03 
2.7093536e-01 2.4610454e-01 -1.9387094e-03 
2.6869258e-01 2.4399227e-01 -3.5005312e-03 
2.6884919e-01 2.4400124e-01 -1.9034659e-03 
2.6792523e-01 2.4315216e-01 -2.7746919e-03 
2.7091610e-01 2.4628316e-01 -4.0640212e-03 
2.7104971e-01 2.4621068e-01 -1.8413903e-03 
2.6945835e-01 2.4481703e-01 -4.0782527e-03 
2.6954687e-01 2.4469535e-01 -1.8144533e-03 
2.6724982e-01 2.4253982e-01 -3.5000520e-03 
2.6724476e-01 2.4238500e-01 -1.8910061e-03 
2.6797596e-01 2.4332607e-01 -4.0927008e-03 
2.6647893e-01 2.4169461e-01 -2.7573931e-03 
2.7099353e-01 2.4638803e-01 -4.3521016e-03 
2.6801935e-01 2.4315515e-01 -1.7870878e-03 
2.7113241e-01 2.4631652e-01 -2.0825141e-03 
2.6875800e-01 2.4413937e-01 -4.3715304e-03 
2.6883483e-01 2.4399962e-01 -2.0392358e-03 
2.6579893e-01 2.4107921e-01 -3.4995228e-03 
2.6577020e-01 2.4089937e-01 -1.8770521e-03 
2.6646811e-01 2.4180947e-01 -4.1073472e-03 
2.6646635e-01 2.4158931e-01 -1.7592929e-03 
2.6502448e-01 2.4022888e-01 -2.7399890e-03 
2.6726335e-01 2.4263620e-01 -4.3874015e-03 
2.7109569e-01 2.4649404e-01 -4.3848827e-03 
2.6729530e-01 2.4244767e-01 -2.0155816e-03 
2.7120891e-01 2.4644072e-01 -2.5883282e-03 
2.6433986e-01 2.3961031e-01 -3.4989344e-03 
2.6439747e-01 2.3952122e-01 -1.9164617e-03 
2.6493400e-01 2.4026649e-01 -4.1221767e-03 
2.6810688e-01 2.4348661e-01 -4.3997974e-03 
2.6574290e-01 2.4110702e-01 -4.4034892e-03 
2.6488709e-01 2.3999703e-01 -1.7310615e-03 
2.6814002e-01 2.4335162e-01 -2.5905559e-03 
2.6945224e-01 2.4483848e-01 -4.3716608e-03 
2.6572990e-01 2.4086972e-01 -1.9916785e-03 
2.6356173e-01 2.3875484e-01 -2.7224708e-03 
2.6953292e-01 2.4478225e-01 -2.8958688e-03 
2.6673821e-01 2.4211103e-01 -4.4242162e-03 
2.6673549e-01 2.4192731e-01 -2.4781341e-03 
2.7121031e-01 2.4661446e-01 -4.4369292e-03 
2.7128533e-01 2.4658346e-01 -3.2938446e-03 
2.6287243e-01 2.3813306e-01 -3.4982588e-03 
2.6293078e-01 2.3804286e-01 -1.8945516e-03 
2.6337287e-01 2.3869628e-01 -4.1371807e-03 
2.6419580e-01 2.3955105e-01 -4.4197328e-03 
2.6328084e-01 2.3837750e-01 -1.7023685e-03 
2.6413786e-01 2.3926492e-01 -1.9674711e-03 
2.6209056e-01 2.3727229e-01 -2.7047908e-03 
2.6506948e-01 2.4043052e-01 -4.4179177e-03 
2.6501182e-01 2.4020009e-01 -2.5626833e-03 
2.6750988e-01 2.4289438e-01 -4.4924626e-03 
2.6955867e-01 2.4496624e-01 -4.5917467e-03 
2.6959789e-01 2.4493311e-01 -3.8118088e-03 
2.6748550e-01 2.4277440e-01 -3.4663405e-03 
2.6145899e-01 2.3656279e-01 -1.9087107e-03 
2.6139647e-01 2.3664725e-01 -3.4975100e-03 
2.6262125e-01 2.3796742e-01 -4.4361488e-03 
2.6365253e-01 2.3900644e-01 -4.4439868e-03 
2.6178384e-01 2.3709802e-01 -4.1523473e-03 
2.7132544e-01 2.4675681e-01 -4.7186958e-03 
2.7136239e-01 2.4674456e-01 -4.1882512e-03 
2.6251832e-01 2.3763251e-01 -1.9430475e-03 
2.6355907e-01 2.3872697e-01 -2.4466275e-03 
2.6164657e-01 2.3672992e-01 -1.6732721e-03 
2.6061079e-01 2.3578125e-01 -2.6870668e-03 
2.6445267e-01 2.3981798e-01 -4.5069768e-03 
2.5991184e-01 2.3515290e-01 -3.4967335e-03 
2.5997180e-01 2.3506059e-01 -1.8502605e-03 
2.6101840e-01 2.3635536e-01 -4.4526709e-03 
2.6433644e-01 2.3960488e-01 -3.4719836e-03 
2.6016602e-01 2.3547092e-01 -4.1676024e-03 
2.6192415e-01 2.3726568e-01 -4.4359290e-03 
2.6087049e-01 2.3597166e-01 -1.9183885e-03 
2.5998363e-01 2.3505341e-01 -1.6436585e-03 
2.6177546e-01 2.3693989e-01 -2.5354123e-03 
2.5912237e-01 2.3428145e-01 -2.6691854e-03 
2.7142078e-01 2.4693073e-01 -5.5533946e-03 
2.6897728e-01 2.4447200e-01 -5.5674813e-03 
2.5841847e-01 2.3364963e-01 -3.4959142e-03 
2.5847936e-01 2.3355639e-01 -1.8277827e-03 
2.5938636e-01 2.3471402e-01 -4.4692559e-03 
2.6030892e-01 2.3564044e-01 -4.4447333e-03 
2.6027152e-01 2.3541507e-01 -2.4155078e-03 
2.5851852e-01 2.3381400e-01 -4.1828845e-03 
2.5919348e-01 2.3428153e-01 -1.8935052e-03 
2.5762504e-01 2.3277292e-01 -2.6511936e-03 
2.6653367e-01 2.4201317e-01 -5.5815312e-03 
2.6089129e-01 2.3622929e-01 -4.4726827e-03 
2.5829101e-01 2.3334724e-01 -1.6135910e-03 
2.6264864e-01 2.3802444e-01 -4.7507868e-03 
2.6270357e-01 2.3802561e-01 -4.1668313e-03 
2.6107788e-01 2.3632546e-01 -3.4807262e-03 
2.5711223e-01 2.3217113e-01 -1.7253385e-03 
2.5691625e-01 2.3213759e-01 -3.4948376e-03 
2.5866407e-01 2.3398553e-01 -4.4535422e-03 
2.5772417e-01 2.3304245e-01 -4.4859312e-03 
2.6409009e-01 2.3955435e-01 -5.5954177e-03 
2.5684038e-01 2.3212637e-01 -4.1984073e-03 
2.5842416e-01 2.3356448e-01 -2.5088126e-03 
2.5748622e-01 2.3256113e-01 -1.8682120e-03 
2.5611883e-01 2.3125544e-01 -2.6330054e-03 
2.5656772e-01 2.3161025e-01 -1.5830630e-03 
2.6020724e-01 2.3556776e-01 -4.7669434e-03 
2.5714129e-01 2.3245537e-01 -4.4826861e-03 
2.5540495e-01 2.3061666e-01 -3.4936648e-03 
2.5552961e-01 2.3057568e-01 -1.6928868e-03 
2.5603086e-01 2.3133965e-01 -4.5026583e-03 
2.5686583e-01 2.3198475e-01 -2.3846698e-03 
2.6164630e-01 2.3709460e-01 -5.6088287e-03 
2.5800389e-01 2.3332869e-01 -4.5373291e-03 
2.5513065e-01 2.3040709e-01 -4.2139357e-03 
2.5460348e-01 2.2972889e-01 -2.6146253e-03 
2.5574794e-01 2.3080966e-01 -1.8428279e-03 
2.5770310e-01 2.3292984e-01 -3.4933868e-03 
2.5481275e-01 2.2984166e-01 -1.5520421e-03 
2.5388443e-01 2.2908655e-01 -3.4924522e-03 
2.5391155e-01 2.2894731e-01 -1.6880513e-03 
2.5528175e-01 2.3058277e-01 -4.4706361e-03 
2.5430545e-01 2.2960472e-01 -4.5193424e-03 
2.5920296e-01 2.3463582e-01 -5.6221914e-03 
2.5307888e-01 2.2819337e-01 -2.5962375e-03 
2.5495052e-01 2.3006663e-01 -2.4828962e-03 
2.5338829e-01 2.2865514e-01 -4.2293863e-03 
2.5397742e-01 2.2902597e-01 -1.8169970e-03 
2.5302529e-01 2.2804059e-01 -1.5206042e-03 
2.5235480e-01 2.2754735e-01 -3.4909616e-03 
2.5241905e-01 2.2745033e-01 -1.7359852e-03 
2.5370079e-01 2.2899440e-01 -4.5010615e-03 
2.5459781e-01 2.2990200e-01 -4.5531280e-03 
2.5254694e-01 2.2783664e-01 -4.5359046e-03 
2.5333419e-01 2.2842850e-01 -2.3542154e-03 
2.5154513e-01 2.2664885e-01 -2.5778087e-03 
2.5676033e-01 2.3217827e-01 -5.6354548e-03 
2.5420460e-01 2.2941045e-01 -3.5098204e-03 
2.5161231e-01 2.2686975e-01 -4.2448263e-03 
2.5217405e-01 2.2720951e-01 -1.7911916e-03 
2.5090986e-01 2.2593309e-01 -1.7426265e-03 
2.5081587e-01 2.2599933e-01 -3.4895090e-03 
2.5120440e-01 2.2620602e-01 -1.4885730e-03 
2.5176948e-01 2.2704972e-01 -4.4866884e-03 
2.5000197e-01 2.2509490e-01 -2.5590991e-03 
2.5075457e-01 2.2603478e-01 -4.5522712e-03 
2.5134706e-01 2.2643918e-01 -2.4581491e-03 
2.4980180e-01 2.2504978e-01 -4.2601535e-03 
2.5033683e-01 2.2535916e-01 -1.7648609e-03 
2.5288677e-01 2.2820400e-01 -4.8137764e-03 
2.5431865e-01 2.2972202e-01 -5.6483834e-03 
2.4926731e-01 2.2444138e-01 -3.4880163e-03 
2.4933329e-01 2.2434247e-01 -1.6892157e-03 
2.4934889e-01 2.2433709e-01 -1.4559113e-03 
2.5012678e-01 2.2540015e-01 -4.5184041e-03 
2.5106052e-01 2.2634414e-01 -4.5691296e-03 
2.4844913e-01 2.2353168e-01 -2.5404270e-03 
2.4892673e-01 2.2419763e-01 -4.5687943e-03 
2.4966925e-01 2.2473948e-01 -2.3246235e-03 
2.5057477e-01 2.2576059e-01 -3.5306467e-03 
2.4795799e-01 2.2295088e-01 -1.5943821e-03 
2.4966133e-01 2.2485209e-01 -3.6443456e-03 
2.4773145e-01 2.2288644e-01 -3.3750304e-03 
2.4795532e-01 2.2319399e-01 -4.2753816e-03 
2.4846412e-01 2.2347376e-01 -1.7385619e-03 
2.5187784e-01 2.2726642e-01 -5.6602149e-03 
2.4745756e-01 2.2243260e-01 -1.4230264e-03 
2.4688700e-01 2.2195931e-01 -2.5215531e-03 
2.4811868e-01 2.2337857e-01 -4.5016278e-03 
2.4706264e-01 2.2232419e-01 -4.5849164e-03 
2.4629754e-01 2.2127728e-01 -1.5446823e-03 
2.4614182e-01 2.2129796e-01 -3.4840303e-03 
2.4760503e-01 2.2267389e-01 -2.4345254e-03 
2.4607204e-01 2.2130151e-01 -4.2906888e-03 
2.4655500e-01 2.2155204e-01 -1.7116519e-03 
2.4531491e-01 2.2037718e-01 -2.5023641e-03 
2.4943803e-01 2.2481288e-01 -5.6720562e-03 
2.4552943e-01 2.2049142e-01 -1.3895766e-03 
2.4746659e-01 2.2273532e-01 -4.6350323e-03 
2.4623890e-01 2.2148855e-01 -4.5086779e-03 
2.4456418e-01 2.1971208e-01 -3.4817632e-03 
2.4516094e-01 2.2041339e-01 -4.6006818e-03 
2.4586159e-01 2.2090857e-01 -2.2959055e-03 
2.4459083e-01 2.1956031e-01 -1.5246609e-03 
2.4680492e-01 2.2197148e-01 -3.5560979e-03 
2.4415065e-01 2.1937118e-01 -4.3056537e-03 
2.4373274e-01 2.1878536e-01 -2.4828715e-03 
2.4460867e-01 2.1959360e-01 -1.6849414e-03 
2.4473485e-01 2.1997444e-01 -4.4846339e-03 
2.4356335e-01 2.1851282e-01 -1.3557159e-03 
2.4297661e-01 2.1811657e-01 -3.4792037e-03 
2.4304575e-01 2.1801415e-01 -1.5934162e-03 
2.4700060e-01 2.2236258e-01 -5.6834822e-03 
2.4557629e-01 2.2085443e-01 -4.8558032e-03 
2.4322082e-01 2.1846442e-01 -4.6160305e-03 
2.4258868e-01 2.1764827e-01 -2.6174586e-03 
2.4371594e-01 2.1876284e-01 -2.4124414e-03 
2.4214101e-01 2.1718469e-01 -2.4634213e-03 
2.4219027e-01 2.1740247e-01 -4.3195845e-03 
2.4262419e-01 2.1759740e-01 -1.6585574e-03 
2.4137937e-01 2.1651167e-01 -3.4764849e-03 
2.4143498e-01 2.1639661e-01 -1.5940837e-03 
2.4236369e-01 2.1759413e-01 -4.5201448e-03 
2.4155839e-01 2.1649618e-01 -1.3216693e-03 
2.4334709e-01 2.1860227e-01 -4.7346340e-03 
2.4329111e-01 2.1846552e-01 -3.8449496e-03 
2.4456383e-01 2.1991271e-01 -5.6935176e-03 
2.4124141e-01 2.1647666e-01 -4.6306937e-03 
2.4053931e-01 2.1557470e-01 -2.4442242e-03 
2.4171382e-01 2.1675082e-01 -2.4023366e-03 
2.4018987e-01 2.1539401e-01 -4.3334197e-03 
2.4004388e-01 2.1498905e-01 -1.4730939e-03 
2.3977277e-01 2.1489786e-01 -3.4731275e-03 
2.4059992e-01 2.1556224e-01 -1.6310806e-03 
2.4036704e-01 2.1558848e-01 -4.5255865e-03 
2.3951380e-01 2.1444015e-01 -1.2868057e-03 
2.3892856e-01 2.1395525e-01 -2.4248469e-03 
2.3922078e-01 2.1444844e-01 -4.6449187e-03 
2.4085043e-01 2.1601228e-01 -3.8321228e-03 
2.4063200e-01 2.1586806e-01 -4.6696295e-03 
2.4212949e-01 2.1746641e-01 -5.7031442e-03 
2.3967175e-01 2.1469937e-01 -2.3926385e-03 
2.3822765e-01 2.1316963e-01 -1.5206330e-03 
2.3812748e-01 2.1323435e-01 -3.3481312e-03 
2.3814766e-01 2.1334493e-01 -4.3471479e-03 
2.3853540e-01 2.1348764e-01 -1.6040361e-03 
2.3730706e-01 2.1232611e-01 -2.4047596e-03 
2.3865886e-01 2.1387115e-01 -4.5033754e-03 
2.3742786e-01 2.1234386e-01 -1.2518401e-03 
2.3715836e-01 2.1237907e-01 -4.6586120e-03 
2.3652914e-01 2.1164137e-01 -3.4667912e-03 
2.3660082e-01 2.1153562e-01 -1.4958022e-03 
2.3758854e-01 2.1260777e-01 -2.3834568e-03 
2.3853618e-01 2.1369450e-01 -3.8988071e-03 
2.3969856e-01 2.1502465e-01 -5.7117930e-03 
2.3606305e-01 2.1125375e-01 -4.3603480e-03 
2.3810993e-01 2.1334206e-01 -4.7422280e-03 
2.3567516e-01 2.1068743e-01 -2.3840410e-03 
2.3642904e-01 2.1137196e-01 -1.5768117e-03 
2.3653229e-01 2.1173665e-01 -4.5028352e-03 
2.3489141e-01 2.0999862e-01 -3.4628590e-03 
2.3496389e-01 2.0989254e-01 -1.4707679e-03 
2.3529936e-01 2.1020584e-01 -1.2161965e-03 
2.3505244e-01 2.1026699e-01 -4.6718004e-03 
2.3546296e-01 2.1047485e-01 -2.3747580e-03 
2.3403291e-01 2.0903935e-01 -2.3638858e-03 
2.3620261e-01 2.1134508e-01 -3.8134868e-03 
2.3727128e-01 2.1258780e-01 -5.7190773e-03 
2.3393400e-01 2.0911933e-01 -4.3729651e-03 
2.3427925e-01 2.0921406e-01 -1.5493919e-03 
2.3576137e-01 2.1098739e-01 -4.7688722e-03 
2.3324355e-01 2.0834586e-01 -3.4586196e-03 
2.3331702e-01 2.0823951e-01 -1.4458871e-03 
2.3429945e-01 2.0949703e-01 -4.5064506e-03 
2.3312667e-01 2.0802507e-01 -1.1799654e-03 
2.3238042e-01 2.0738126e-01 -2.3440185e-03 
2.3290128e-01 2.0811103e-01 -4.6842773e-03 
2.3329321e-01 2.0829892e-01 -2.3667049e-03 
2.3158577e-01 2.0668405e-01 -3.4542435e-03 
2.3165974e-01 2.0657612e-01 -1.4203361e-03 
2.3175892e-01 2.0694032e-01 -4.3852809e-03 
2.3484817e-01 2.1015610e-01 -5.7252976e-03 
2.3208462e-01 2.0701271e-01 -1.5218187e-03 
2.3344946e-01 2.0857622e-01 -3.7271581e-03 
2.3343223e-01 2.0865376e-01 -4.7985855e-03 
2.3071750e-01 2.0571323e-01 -2.3230279e-03 
2.3202731e-01 2.0721929e-01 -4.5088697e-03 
2.3090841e-01 2.0580012e-01 -1.1437004e-03 
2.3070383e-01 2.0590985e-01 -4.6956977e-03 
2.3143184e-01 2.0644717e-01 -2.5153249e-03 
2.2991654e-01 2.0501180e-01 -3.4497392e-03 
2.2999199e-01 2.0490451e-01 -1.3959969e-03 
2.2953670e-01 2.0471521e-01 -4.3964805e-03 
2.3242822e-01 2.0772918e-01 -5.7323519e-03 
2.2904386e-01 2.0403686e-01 -2.3034574e-03 
2.2984433e-01 2.0476674e-01 -1.4940704e-03 
2.3105735e-01 2.0627280e-01 -4.7976370e-03 
2.3083387e-01 2.0597051e-01 -3.9077927e-03 
2.2973372e-01 2.0492133e-01 -4.5113438e-03 
2.2823744e-01 2.0333092e-01 -3.4455913e-03 
2.2831297e-01 2.0322256e-01 -1.3708997e-03 
2.2864407e-01 2.0353015e-01 -1.1061757e-03 
2.2845872e-01 2.0366229e-01 -4.7060112e-03 
2.2918405e-01 2.0420474e-01 -2.6126462e-03 
2.2735916e-01 2.0234917e-01 -2.2833040e-03 
2.2726704e-01 2.0244372e-01 -4.4066105e-03 
2.2726285e-01 2.0227061e-01 -2.4895568e-03 
2.3001292e-01 2.0530927e-01 -5.7382649e-03 
2.2755675e-01 2.0247506e-01 -1.4662461e-03 
2.2869557e-01 2.0390360e-01 -4.7604125e-03 
2.2654749e-01 2.0163934e-01 -3.4395142e-03 
2.2662313e-01 2.0152931e-01 -1.3452846e-03 
2.2741814e-01 2.0260346e-01 -4.5164493e-03 
2.2844377e-01 2.0358384e-01 -3.9869552e-03 
2.2633111e-01 2.0121332e-01 -1.0688924e-03 
2.2566421e-01 2.0065145e-01 -2.2617069e-03 
2.2616433e-01 2.0136695e-01 -4.7155437e-03 
2.2684216e-01 2.0186219e-01 -2.6197343e-03 
2.2484595e-01 1.9993718e-01 -3.4346064e-03 
2.2492358e-01 1.9982783e-01 -1.3200000e-03 
2.2494511e-01 2.0012268e-01 -4.4156639e-03 
2.2760141e-01 2.0289432e-01 -5.7432894e-03 
2.2522016e-01 2.0013623e-01 -1.4384399e-03 
2.2633457e-01 2.0154023e-01 -4.7569717e-03 
2.2395766e-01 1.9894455e-01 -2.2413107e-03 
2.2507888e-01 2.0026389e-01 -4.5192069e-03 
2.2610304e-01 2.0125125e-01 -4.0945429e-03 
2.2376963e-01 1.9882469e-01 -3.0110455e-03 
2.2396827e-01 1.9884872e-01 -1.0299230e-03 
2.2381839e-01 1.9902210e-01 -4.7235796e-03 
2.2313386e-01 1.9822636e-01 -3.4291300e-03 
2.2442859e-01 1.9945410e-01 -2.6734676e-03 
2.2303319e-01 1.9792940e-01 -1.2059973e-03 
2.2257222e-01 1.9775173e-01 -4.4244383e-03 
2.2223981e-01 1.9722697e-01 -2.2200835e-03 
2.2519565e-01 2.0048781e-01 -5.7469434e-03 
2.2286385e-01 1.9779097e-01 -1.5358167e-03 
2.2388275e-01 1.9908635e-01 -4.7276369e-03 
2.2276707e-01 1.9795421e-01 -4.5352564e-03 
2.2384852e-01 1.9901675e-01 -4.3167965e-03 
2.2141546e-01 1.9650932e-01 -3.4159131e-03 
2.2149378e-01 1.9639866e-01 -1.2709623e-03 
2.2155364e-01 1.9643395e-01 -9.9101034e-04 
2.2142936e-01 1.9663589e-01 -4.7300775e-03 
2.2052293e-01 1.9551103e-01 -2.1994233e-03 
2.2154349e-01 1.9657354e-01 -2.6920256e-03 
2.2016530e-01 1.9534914e-01 -4.4320473e-03 
2.2279669e-01 1.9809011e-01 -5.7480694e-03 
2.1970288e-01 1.9479741e-01 -3.3972564e-03 
2.1978186e-01 1.9468789e-01 -1.2508183e-03 
2.2042300e-01 1.9533893e-01 -1.3632824e-03 
2.2145289e-01 1.9662383e-01 -4.3196138e-03 
2.2096467e-01 1.9617255e-01 -4.7397371e-03 
2.1995394e-01 1.9514537e-01 -4.5324014e-03 
2.1881689e-01 1.9380693e-01 -2.1793512e-03 
2.1914902e-01 1.9403106e-01 -9.5112872e-04 
2.1903977e-01 1.9425111e-01 -4.7379117e-03 
2.1925530e-01 1.9425146e-01 -2.2465528e-03 
2.1800241e-01 1.9309914e-01 -3.3773270e-03 
2.1801727e-01 1.9291714e-01 -1.1326325e-03 
2.1779671e-01 1.9298579e-01 -4.4384426e-03 
2.2040217e-01 1.9569865e-01 -5.7487246e-03 
2.1803363e-01 1.9295162e-01 -1.3126599e-03 
2.1712251e-01 1.9211523e-01 -2.1583983e-03 
2.1792541e-01 1.9312203e-01 -4.5473627e-03 
2.1880381e-01 1.9392715e-01 -3.7084296e-03 
2.1902156e-01 1.9425198e-01 -4.9469220e-03 
2.1790202e-01 1.9309913e-01 -4.5470661e-03 
2.1677895e-01 1.9166487e-01 -9.1356563e-04 
2.1631205e-01 1.9141214e-01 -3.3571750e-03 
2.1639118e-01 1.9130364e-01 -1.2111565e-03 
2.1668842e-01 1.9190507e-01 -4.7435481e-03 
2.1688323e-01 1.9187963e-01 -2.1726245e-03 
2.1543926e-01 1.9043683e-01 -2.1382857e-03 
2.1546595e-01 1.9066162e-01 -4.4424213e-03 
2.1801290e-01 1.9331524e-01 -5.7510445e-03 
2.1567956e-01 1.9060130e-01 -1.2638116e-03 
2.1494567e-01 1.8985161e-01 -1.0682198e-03 
2.1463469e-01 1.8973903e-01 -3.3360184e-03 
2.1559110e-01 1.9079392e-01 -4.5551336e-03 
2.1663590e-01 1.9187182e-01 -4.9488419e-03 
2.1667397e-01 1.9185571e-01 -4.3234727e-03 
2.1444374e-01 1.8933527e-01 -8.7666465e-04 
2.1568210e-01 1.9077295e-01 -3.2415732e-03 
2.1437421e-01 1.8959869e-01 -4.7474941e-03 
2.1376857e-01 1.8877013e-01 -2.1177186e-03 
2.1518825e-01 1.9039185e-01 -4.5447401e-03 
2.1454631e-01 1.8954517e-01 -2.1013180e-03 
2.1296760e-01 1.8807639e-01 -3.3157112e-03 
2.1317156e-01 1.8837658e-01 -4.4457065e-03 
2.1562506e-01 1.9093244e-01 -5.7492177e-03 
2.1336012e-01 1.8828779e-01 -1.2164464e-03 
2.1279421e-01 1.8770503e-01 -1.0167316e-03 
2.1329406e-01 1.8850631e-01 -4.5618834e-03 
2.1210693e-01 1.8711542e-01 -2.0979228e-03 
2.1425240e-01 1.8949431e-01 -4.9498016e-03 
2.1428958e-01 1.8947777e-01 -4.3243677e-03 
2.1214250e-01 1.8704261e-01 -8.4021600e-04 
2.1209641e-01 1.8733113e-01 -4.7502075e-03 
2.1131147e-01 1.8642710e-01 -3.2935143e-03 
2.1139069e-01 1.8632032e-01 -1.1534923e-03 
2.1289428e-01 1.8798061e-01 -3.0544852e-03 
2.1281299e-01 1.8802497e-01 -4.5397580e-03 
2.1224403e-01 1.8724793e-01 -2.0321838e-03 
2.1121193e-01 1.8622415e-01 -2.0890587e-03 
2.1091376e-01 1.8613032e-01 -4.4470495e-03 
2.1045788e-01 1.8547376e-01 -2.0782053e-03 
2.1324296e-01 1.8855682e-01 -5.7466244e-03 
2.1065880e-01 1.8556789e-01 -8.5475377e-04 
2.1107499e-01 1.8601075e-01 -1.1706488e-03 
2.1103357e-01 1.8625681e-01 -4.5677926e-03 
2.1187654e-01 1.8712817e-01 -4.9489411e-03 
2.1191266e-01 1.8711126e-01 -4.3243780e-03 
2.0966785e-01 1.8479167e-01 -3.2710691e-03 
2.0974527e-01 1.8468378e-01 -1.1353249e-03 
2.0976198e-01 1.8482928e-01 -2.6340152e-03 
2.0987415e-01 1.8478498e-01 -8.0633478e-04 
2.0989214e-01 1.8498504e-01 -2.9388454e-03 
2.0985603e-01 1.8510194e-01 -4.7504990e-03 
2.1052368e-01 1.8562381e-01 -3.0577350e-03 
2.1044481e-01 1.8566836e-01 -4.5332634e-03 
2.0997614e-01 1.8498749e-01 -1.9663589e-03 
2.0882103e-01 1.8384536e-01 -2.0573596e-03 
2.0901954e-01 1.8393798e-01 -8.3661726e-04 
2.0869221e-01 1.8392117e-01 -4.4451202e-03 
2.0826179e-01 1.8321590e-01 -1.1979491e-03 
2.0882156e-01 1.8376838e-01 -1.1256533e-03 
2.1086837e-01 1.8619265e-01 -5.7425844e-03 
2.0843050e-01 1.8345830e-01 -2.0684458e-03 
2.0803571e-01 1.8316758e-01 -3.2485202e-03 
2.0881036e-01 1.8404724e-01 -4.5735724e-03 
2.0950794e-01 1.8477297e-01 -4.9468968e-03 
2.0954314e-01 1.8475567e-01 -4.3232869e-03 
2.0719562e-01 1.8223041e-01 -2.0384153e-03 
2.0763984e-01 1.8256409e-01 -7.7248341e-04 
2.0764866e-01 1.8290888e-01 -4.7493237e-03 
2.0774074e-01 1.8276183e-01 -1.8994915e-03 
2.0815992e-01 1.8327509e-01 -3.0622261e-03 
2.0808342e-01 1.8332128e-01 -4.5272144e-03 
2.0641556e-01 1.8155743e-01 -3.2266770e-03 
2.0671985e-01 1.8176724e-01 -2.1409590e-03 
2.0649208e-01 1.8145205e-01 -1.1002599e-03 
2.0650445e-01 1.8174835e-01 -4.4438369e-03 
2.0660204e-01 1.8156137e-01 -1.0823548e-03 
2.0850183e-01 1.8383922e-01 -5.7366653e-03 
2.0662041e-01 1.8187208e-01 -4.5765257e-03 
2.0558131e-01 1.8062724e-01 -2.0180801e-03 
2.0577674e-01 1.8071693e-01 -7.9727900e-04 
2.0548211e-01 1.8061221e-01 -3.0156011e-03 
2.0547810e-01 1.8075314e-01 -4.7468063e-03 
2.0543720e-01 1.8037617e-01 -7.3962042e-04 
2.0714734e-01 1.8242717e-01 -4.9431901e-03 
2.0718169e-01 1.8240935e-01 -4.3204068e-03 
2.0514825e-01 1.8020588e-01 -2.1171167e-03 
2.0498084e-01 1.8009509e-01 -2.7635472e-03 
2.0480523e-01 1.7995857e-01 -3.2039243e-03 
2.0488213e-01 1.7985474e-01 -1.0821339e-03 
2.0553683e-01 1.8056998e-01 -1.8363425e-03 
2.0580260e-01 1.8093619e-01 -3.0633432e-03 
2.0572825e-01 1.8098271e-01 -4.5192479e-03 
2.0435174e-01 1.7961203e-01 -4.4401507e-03 
2.0397751e-01 1.7903675e-01 -1.9986816e-03 
2.0417176e-01 1.7912544e-01 -7.7884988e-04 
2.0441522e-01 1.7939106e-01 -1.0412862e-03 
2.0446393e-01 1.7973261e-01 -4.5805150e-03 
2.0614235e-01 1.8149464e-01 -5.7292487e-03 
2.0320603e-01 1.7837216e-01 -3.1811690e-03 
2.0328364e-01 1.7826986e-01 -1.0643970e-03 
2.0324738e-01 1.7836548e-01 -2.6289574e-03 
2.0334023e-01 1.7863329e-01 -4.7429306e-03 
2.0326553e-01 1.7822236e-01 -7.0590281e-04 
2.0479257e-01 1.8008935e-01 -4.9380832e-03 
2.0482621e-01 1.8007120e-01 -4.3163542e-03 
2.0238449e-01 1.7745775e-01 -1.9806793e-03 