# vtk DataFile Version 4.0
vtk output
ASCII
DATASET UNSTRUCTURED_GRID
POINTS 6166 float
-4.3633327e-01 9.6409470e-01 4.4200001e+01 
-4.3633261e-01 9.6409082e-01 4.4079685e+01 
-3.2145375e-01 9.1276109e-01 4.4200001e+01 
-3.8566181e-01 8.4097892e-01 4.4200001e+01 
-3.3069235e-01 9.1895354e-01 4.4019413e+01 
-3.8473952e-01 8.3919770e-01 4.4024357e+01 
-4.3633196e-01 9.6408689e-01 4.3958702e+01 
-2.1293370e-01 8.4677851e-01 4.4200001e+01 
-2.9042658e-01 7.3813015e-01 4.4200001e+01 
-2.1019450e-01 8.4669626e-01 4.4077393e+01 
-2.8909999e-01 7.3605996e-01 4.4073399e+01 
-3.2963324e-01 9.1929907e-01 4.3898094e+01 
-3.8679782e-01 8.4179753e-01 4.3889645e+01 
-2.0740938e-01 8.4661204e-01 4.3952713e+01 
-4.3633130e-01 9.6408290e-01 4.3837040e+01 
-1.1677200e-01 7.7521002e-01 4.4200001e+01 
-2.8775173e-01 7.3395580e-01 4.3944717e+01 
-1.9365783e-01 6.6203654e-01 4.4200001e+01 
-1.1309985e-01 7.7540898e-01 4.4012005e+01 
-1.9181472e-01 6.5888047e-01 4.4006447e+01 
-3.2856464e-01 9.1964108e-01 4.3776085e+01 
-3.8823184e-01 8.4352189e-01 4.3765770e+01 
-2.0457739e-01 8.4652513e-01 4.3825886e+01 
-2.8638119e-01 7.3181647e-01 4.3813885e+01 
-4.3633065e-01 9.6407896e-01 4.3714680e+01 
-1.0911675e-01 7.7426714e-01 4.3886200e+01 
-2.1001574e-02 6.8269837e-01 4.4200001e+01 
-1.8902887e-01 6.5566909e-01 4.3876659e+01 
-7.8887597e-02 5.9015810e-01 4.4200001e+01 
-3.2748649e-01 9.1997939e-01 4.3653378e+01 
-3.9889076e-01 8.5876143e-01 4.3651733e+01 
-2.0169757e-01 8.4643483e-01 4.3696846e+01 
-7.2496021e-03 6.7325598e-01 4.3947758e+01 
-1.0504345e-01 7.7307969e-01 4.3758209e+01 
-2.8498772e-01 7.2964084e-01 4.3680840e+01 
-6.3224643e-02 5.7783771e-01 4.3940754e+01 
3.5808440e-02 6.2679136e-01 4.4056572e+01 
-1.8616955e-01 6.5238589e-01 4.3744686e+01 
-4.3632996e-01 9.6407503e-01 4.3591618e+01 
-9.8678423e-03 5.4892725e-01 4.4055367e+01 
-1.8652271e-02 6.8798620e-01 4.3834026e+01 
-7.9845116e-02 5.8636194e-01 4.3823372e+01 
8.7777540e-02 5.7885915e-01 4.4200001e+01 
5.3622175e-02 5.1732427e-01 4.4200001e+01 
-3.2639861e-01 9.2031354e-01 4.3529953e+01 
-3.9894739e-01 8.5844576e-01 4.3528313e+01 
-1.9876897e-01 8.4634024e-01 4.3565521e+01 
-1.0087753e-01 7.7184403e-01 4.3627972e+01 
-2.8357074e-01 7.2742778e-01 4.3545506e+01 
-1.8323407e-01 6.4902818e-01 4.3610458e+01 
-4.3632931e-01 9.6407109e-01 4.3467831e+01 
3.1033519e-03 6.6751039e-01 4.3691772e+01 
-5.3600248e-02 5.6906003e-01 4.3676846e+01 
1.2436585e-01 5.5082864e-01 4.3886215e+01 
1.7079005e-01 5.1095647e-01 4.4054855e+01 
1.4951277e-01 4.6697062e-01 4.4053665e+01 
1.0028158e-01 4.8915190e-01 4.3877911e+01 
-4.0513036e-01 8.6722642e-01 4.3405304e+01 
-3.2530096e-01 9.2064321e-01 4.3405800e+01 
-9.6616447e-02 7.7055699e-01 4.3495411e+01 
-8.4563000e-03 6.8258613e-01 4.3574005e+01 
-1.9579062e-01 8.4624058e-01 4.3431831e+01 
2.1753120e-01 4.7335833e-01 4.4200001e+01 
2.0360756e-01 4.4289169e-01 4.4200001e+01 
-1.8021962e-01 6.4559317e-01 4.3473904e+01 
-7.0636064e-02 5.7773441e-01 4.3555408e+01 
-2.8212959e-01 7.2517604e-01 4.3407806e+01 
-4.3632865e-01 9.6406716e-01 4.3343307e+01 
1.3810426e-01 5.4143524e-01 4.3628246e+01 
-3.2419339e-01 9.2096806e-01 4.3280907e+01 
-3.9903235e-01 8.5775709e-01 4.3279266e+01 
-9.2257597e-02 7.6921552e-01 4.3360443e+01 
1.1508528e-01 4.7804743e-01 4.3612068e+01 
-1.9276154e-01 8.4613472e-01 4.3295704e+01 
1.4013666e-02 6.6131532e-01 4.3426643e+01 
-1.7712323e-01 6.4207786e-01 4.3334946e+01 
-2.8066361e-01 7.2288430e-01 4.3267666e+01 
-4.3382257e-02 5.5983055e-01 4.3403778e+01 
-4.3632799e-01 9.6406323e-01 4.3218033e+01 
3.7877345e-01 3.8273901e-01 4.4200001e+01 
3.9076596e-01 3.7443376e-01 4.3993755e+01 
-3.2307580e-01 9.2128778e-01 4.3155251e+01 
-3.9906058e-01 8.5738426e-01 4.3153610e+01 
-8.7798268e-02 7.6781619e-01 4.3222996e+01 
1.9689407e-02 6.5803534e-01 4.3290459e+01 
-6.0862999e-02 5.6866169e-01 4.3278019e+01 
-1.8968078e-01 8.4602165e-01 4.3157055e+01 
-1.7394182e-01 6.3847917e-01 4.3193501e+01 
-4.3632734e-01 9.6405929e-01 4.3091995e+01 
4.0275589e-01 3.6612594e-01 4.3787510e+01 
1.2304078e-01 5.5709994e-01 4.3330139e+01 
-2.7917209e-01 7.2055119e-01 4.3125000e+01 
2.5336364e-01 4.4907436e-01 4.3468094e+01 
2.3670304e-01 4.1684708e-01 4.3469433e+01 
1.3086085e-01 4.6634668e-01 4.3336948e+01 
-3.8351217e-01 8.3473074e-01 4.3036392e+01 
-3.2194808e-01 9.2160189e-01 4.3028820e+01 
2.5518833e-02 6.5462554e-01 4.3151749e+01 
-8.3235659e-02 7.6635528e-01 4.3082981e+01 
4.1474071e-01 3.5781288e-01 4.3581264e+01 
-1.8654740e-01 8.4590012e-01 4.3015797e+01 
-3.2522827e-02 5.5011308e-01 4.3120937e+01 
-1.7067213e-01 6.3479382e-01 4.3049488e+01 
-4.3632668e-01 9.6405542e-01 4.2965172e+01 
-2.7765438e-01 7.1817529e-01 4.2979721e+01 
2.6620242e-01 4.4011977e-01 4.3261948e+01 
1.3584816e-02 6.7044950e-01 4.3025066e+01 
-3.2081014e-01 9.2191011e-01 4.2901604e+01 
-3.8160574e-01 8.3169121e-01 4.2902863e+01 
-7.8566879e-02 7.6482886e-01 4.2940315e+01 
-5.0480481e-02 5.5910730e-01 4.2990566e+01 
4.2671782e-01 3.4949207e-01 4.3375019e+01 
1.6821145e-01 5.2049083e-01 4.3083881e+01 
-1.8336046e-01 8.4576881e-01 4.2871841e+01 
-4.3632606e-01 9.6405160e-01 4.2837555e+01 
-1.6731077e-01 6.3101834e-01 4.2902817e+01 
1.4768846e-01 4.5400122e-01 4.3051926e+01 
-2.7610970e-01 7.1575516e-01 4.2831745e+01 
-3.1966189e-01 9.2221189e-01 4.2773579e+01 
-3.8560396e-01 8.3684862e-01 4.2767078e+01 
3.7660085e-02 6.4738947e-01 4.2866421e+01 
-7.3788933e-02 7.6323271e-01 4.2794899e+01 
4.3868470e-01 3.4116083e-01 4.3168777e+01 
-4.3632543e-01 9.6404779e-01 4.2709122e+01 
-2.0968946e-02 5.3986710e-01 4.2827656e+01 
-1.8011902e-01 8.4562629e-01 4.2725094e+01 
-1.6385415e-01 6.2714905e-01 4.2753403e+01 
-2.7453732e-01 7.1328926e-01 4.2680973e+01 
-3.1850323e-01 9.2250693e-01 4.2644733e+01 
-3.9907700e-01 8.5570478e-01 4.2643101e+01 
2.5504474e-02 6.6361672e-01 4.2734810e+01 
1.8471870e-01 5.0880390e-01 4.2796177e+01 
-6.8898737e-02 7.6156229e-01 4.2646645e+01 
-3.9438177e-02 5.4903054e-01 4.2692345e+01 
-4.3632481e-01 9.6404403e-01 4.2579861e+01 
4.5063871e-01 3.3281663e-01 4.2962532e+01 
1.6565691e-01 4.4095638e-01 4.2756321e+01 
-1.7682223e-01 8.4547096e-01 4.2575459e+01 
-1.6029853e-01 6.2318206e-01 4.2601143e+01 
-4.0415615e-01 8.6278629e-01 4.2516582e+01 
-3.1733403e-01 9.2279470e-01 4.2515053e+01 
-2.7293649e-01 7.1077597e-01 4.2527313e+01 
5.0482783e-02 6.3954860e-01 4.2569923e+01 
-4.3632418e-01 9.6404034e-01 4.2449757e+01 
-6.3893095e-02 7.5981271e-01 4.2495445e+01 
-8.6617703e-03 5.2904755e-01 4.2523201e+01 
-1.7346917e-01 8.4530097e-01 4.2422829e+01 
-1.5663996e-01 6.1911333e-01 4.2445942e+01 
3.0435190e-01 4.1341871e-01 4.2643494e+01 
4.6257737e-01 3.2445681e-01 4.2756287e+01 
-3.1615424e-01 9.2307472e-01 4.2384518e+01 
-3.9902648e-01 8.5475212e-01 4.2382885e+01 
-2.7130640e-01 7.0821363e-01 4.2370659e+01 
3.8079392e-02 6.5619886e-01 4.2433029e+01 
2.0230262e-01 4.9620378e-01 4.2497147e+01 
-4.3632355e-01 9.6403670e-01 4.2318787e+01 
-5.8768708e-02 7.5797862e-01 4.2341198e+01 
-2.7680276e-02 5.3838593e-01 4.2382599e+01 
1.8486446e-01 4.2715022e-01 4.2449394e+01 
-3.8436696e-01 8.3356136e-01 4.2264896e+01 
8.9545198e-02 5.3233254e-01 4.2382050e+01 
-3.3225983e-01 9.3122375e-01 4.2255634e+01 
-1.7005907e-01 8.4511453e-01 4.2267101e+01 
-1.5287429e-01 6.1493850e-01 4.2287693e+01 
4.7449806e-01 3.1607881e-01 4.2550037e+01 
-2.6964626e-01 7.0560038e-01 4.2210907e+01 
-4.3632296e-01 9.6403313e-01 4.2186939e+01 
6.4036883e-02 6.3103610e-01 4.2261456e+01 
-5.3522192e-02 7.5605446e-01 4.2183796e+01 
-3.7873057e-01 8.2541841e-01 4.2124020e+01 
-3.1376252e-01 9.2360973e-01 4.2120819e+01 
4.4639236e-03 5.1760370e-01 4.2206776e+01 
-1.6659111e-01 8.4490943e-01 4.2108162e+01 
-1.4899719e-01 6.1065292e-01 4.2126286e+01 
-4.3632239e-01 9.6402961e-01 4.2054195e+01 
4.8639825e-01 3.0768004e-01 4.2343792e+01 
-2.6795524e-01 7.0293444e-01 4.2047943e+01 
2.4746621e-01 4.6040925e-01 4.2191032e+01 
7.1105182e-02 6.2650448e-01 4.2102463e+01 
-3.1255043e-01 9.2386365e-01 4.1987617e+01 
-4.8150036e-02 7.5403398e-01 4.2023121e+01 
-1.5144684e-02 5.2712250e-01 4.2060505e+01 
-3.7995064e-01 8.2661813e-01 4.1980038e+01 
2.0541981e-01 4.1251117e-01 4.2130333e+01 
-1.6306458e-01 8.4468329e-01 4.1945896e+01 
-4.3632182e-01 9.6402621e-01 4.1920536e+01 
-1.4500406e-01 6.0625184e-01 4.1961609e+01 
1.3375351e-01 5.6370503e-01 4.1969833e+01 
-2.6623246e-01 7.0021385e-01 4.1881653e+01 
-3.1132740e-01 9.2410773e-01 4.1853493e+01 
-3.9880505e-01 8.5261923e-01 4.1851868e+01 
4.9827534e-01 2.9925787e-01 4.2137547e+01 
3.4194937e-01 3.8685825e-01 4.2025021e+01 
-4.2648647e-02 7.5191063e-01 4.1859051e+01 
-2.5401810e-01 7.9503769e-01 4.1808533e+01 
1.8480448e-02 5.0547802e-01 4.1877510e+01 
-4.3632126e-01 9.6402287e-01 4.1785946e+01 
-1.5947884e-01 8.4443361e-01 4.1780174e+01 
-1.4089009e-01 6.0172999e-01 4.1793541e+01 
-3.1009343e-01 9.2434150e-01 4.1718426e+01 
-4.0306881e-01 8.5845691e-01 4.1716179e+01 
8.5861288e-02 6.1683756e-01 4.1774368e+01 
-2.6447710e-01 6.9743657e-01 4.1711910e+01 
3.0427080e-01 4.1638452e-01 4.1839512e+01 
2.6751360e-01 3.7833902e-01 4.1830902e+01 
5.1012677e-01 2.9080975e-01 4.1931297e+01 
-3.7014309e-02 7.4967718e-01 4.1691463e+01 
-4.3632072e-01 9.6401966e-01 4.1650398e+01 
2.5847588e-02 4.9913955e-01 4.1707767e+01 
-1.5583332e-01 8.4415752e-01 4.1610870e+01 
-3.8322043e-01 8.2981020e-01 4.1595791e+01 
-3.0884841e-01 9.2456430e-01 4.1582397e+01 
-1.3665022e-01 5.9708190e-01 4.1621960e+01 
9.3565010e-02 6.1167872e-01 4.1605015e+01 
-2.6268822e-01 6.9460052e-01 4.1538593e+01 
-4.3632022e-01 9.6401656e-01 4.1513885e+01 
-3.1243213e-02 7.4732590e-01 4.1520226e+01 
2.7603787e-01 3.7115356e-01 4.1624012e+01 
2.8505871e-01 4.3281260e-01 4.1611507e+01 
5.2195001e-01 2.8233302e-01 4.1725052e+01 
3.3468332e-02 4.9260557e-01 4.1534447e+01 
-3.9853087e-01 8.5081697e-01 4.1443768e+01 
-3.2560509e-01 9.3245691e-01 4.1443577e+01 
-1.5212752e-01 8.4385180e-01 4.1437847e+01 
-1.3227913e-01 5.9230179e-01 4.1446728e+01 
-4.3631971e-01 9.6401358e-01 4.1376381e+01 
[...]
POINT_DATA 6166
FIELD FieldData 5
DISPLACEMENT 3 6166  float
3.1396854e-01 2.8626189e-01 -3.6876677e-03 
3.1228325e-01 2.8456232e-01 -3.6638146e-03 
3.1401742e-01 2.8637907e-01 -4.5742090e-03 
3.1410795e-01 2.8632364e-01 -2.6609455e-03 
3.1148157e-01 2.8381851e-01 -4.4962987e-03 
3.1164968e-01 2.8384361e-01 -2.6139917e-03 
3.1058869e-01 2.8285336e-01 -3.6398249e-03 
3.1408411e-01 2.8649154e-01 -5.1648812e-03 
3.1421921e-01 2.8642684e-01 -2.5451004e-03 
3.1236655e-01 2.8476226e-01 -5.1778690e-03 
3.1244814e-01 2.8463995e-01 -2.5094403e-03 
3.0978176e-01 2.8210577e-01 -4.4920016e-03 
3.0975994e-01 2.8193849e-01 -2.5951881e-03 
3.1061992e-01 2.8300372e-01 -5.1910481e-03 
3.0888462e-01 2.8113490e-01 -3.6156962e-03 
3.1415859e-01 2.8659251e-01 -5.5034407e-03 
3.1064796e-01 2.8282374e-01 -2.4732091e-03 
3.1429896e-01 2.8652889e-01 -2.8282919e-03 
3.1152466e-01 2.8394043e-01 -5.5205394e-03 
3.1159127e-01 2.8379682e-01 -2.7713042e-03 
3.0807239e-01 2.8038341e-01 -4.4876258e-03 
3.0802301e-01 2.8018722e-01 -2.5749460e-03 
3.0884331e-01 2.8121495e-01 -5.2043973e-03 
3.0881777e-01 2.8097725e-01 -2.4364023e-03 
3.0717099e-01 2.7940673e-01 -3.5914236e-03 
3.0976340e-01 2.8216720e-01 -5.5353502e-03 
3.1425768e-01 2.8669527e-01 -5.5409856e-03 
3.0977666e-01 2.8196642e-01 -2.7393969e-03 
3.1437200e-01 2.8664806e-01 -3.4233711e-03 
3.0635333e-01 2.7865127e-01 -4.4831615e-03 
3.0640906e-01 2.7856472e-01 -2.6180302e-03 
3.0703580e-01 2.7939504e-01 -5.2178963e-03 
3.1073406e-01 2.8314626e-01 -5.5506709e-03 
3.0797169e-01 2.8036329e-01 -5.5503463e-03 
3.0695662e-01 2.7909961e-01 -2.3990097e-03 
3.1075341e-01 2.8300235e-01 -3.4178626e-03 
3.1230858e-01 2.8473017e-01 -5.5203382e-03 
3.0793163e-01 2.8010535e-01 -2.7071245e-03 
3.0544752e-01 2.7766877e-01 -3.5669988e-03 
3.1238753e-01 2.8467631e-01 -3.7807573e-03 
3.0912486e-01 2.8152701e-01 -5.5761053e-03 
3.0910069e-01 2.8132704e-01 -3.2818930e-03 
3.1436884e-01 2.8681192e-01 -5.6010969e-03 
3.1444445e-01 2.8678477e-01 -4.2537129e-03 
3.0462441e-01 2.7690926e-01 -4.4785812e-03 
3.0468091e-01 2.7682170e-01 -2.5884109e-03 
3.0519637e-01 2.7754301e-01 -5.2315327e-03 
3.0614859e-01 2.7852780e-01 -5.5654608e-03 
3.0506361e-01 2.7718982e-01 -2.3610003e-03 
3.0605513e-01 2.7821258e-01 -2.6744227e-03 
3.0371416e-01 2.7592078e-01 -3.5423667e-03 
3.0715409e-01 2.7954066e-01 -5.5640605e-03 
3.0706581e-01 2.7928442e-01 -3.3767840e-03 
3.1000254e-01 2.8241739e-01 -5.6565199e-03 
3.1240711e-01 2.8484923e-01 -5.7782298e-03 
3.1244418e-01 2.8481609e-01 -4.8588407e-03 
3.0996090e-01 2.8228280e-01 -4.4466811e-03 
3.0294880e-01 2.7507797e-01 -2.6013942e-03 
3.0288544e-01 2.7515712e-01 -4.4738916e-03 
3.0429313e-01 2.7665967e-01 -5.5807047e-03 
3.0548808e-01 2.7786428e-01 -5.5913208e-03 
3.0332410e-01 2.7565789e-01 -5.2452898e-03 
3.1447995e-01 2.8694928e-01 -5.9318319e-03 
3.1451708e-01 2.8693876e-01 -5.3065671e-03 
3.0414623e-01 2.7628726e-01 -2.6413873e-03 
3.0535632e-01 2.7755168e-01 -3.2364018e-03 
3.0313763e-01 2.7524692e-01 -2.3224356e-03 
3.0197063e-01 2.7416271e-01 -3.5176566e-03 
3.0639839e-01 2.7878711e-01 -5.6655472e-03 
3.0113626e-01 2.7339488e-01 -4.4691493e-03 
3.0119443e-01 2.7330542e-01 -2.5285303e-03 
3.0240425e-01 2.7475795e-01 -5.5960054e-03 
3.0624819e-01 2.7854249e-01 -4.4449964e-03 
3.0141786e-01 2.7373868e-01 -5.2590850e-03 
3.0344680e-01 2.7580673e-01 -5.5770343e-03 
3.0220395e-01 2.7432832e-01 -2.6079926e-03 
3.0117783e-01 2.7326989e-01 -2.2831850e-03 
3.0325070e-01 2.7543825e-01 -3.3361018e-03 
3.0021688e-01 2.7239430e-01 -3.4927428e-03 
3.1457046e-01 2.8711587e-01 -6.9141495e-03 
3.1168967e-01 2.8421426e-01 -6.9242870e-03 
2.9937676e-01 2.7162212e-01 -4.4643292e-03 
2.9943588e-01 2.7153182e-01 -2.4981697e-03 
3.0048102e-01 2.7282166e-01 -5.6113126e-03 
3.0154297e-01 2.7388918e-01 -5.5831829e-03 
3.0148092e-01 2.7364460e-01 -3.1910413e-03 
2.9947665e-01 2.7178434e-01 -5.2728481e-03 
3.0022728e-01 2.7233481e-01 -2.5742475e-03 
2.9845265e-01 2.7061555e-01 -3.4676783e-03 
3.0880877e-01 2.8131258e-01 -6.9343704e-03 
3.0220607e-01 2.7455962e-01 -5.6161354e-03 
2.9918301e-01 2.7125785e-01 -2.2433200e-03 
3.0425155e-01 2.7664563e-01 -5.9467535e-03 
3.0430958e-01 2.7665159e-01 -5.2584889e-03 
3.0240634e-01 2.7467242e-01 -4.4466676e-03 
2.9782000e-01 2.6989496e-01 -2.3736013e-03 
2.9760680e-01 2.6983902e-01 -4.4592037e-03 
2.9960418e-01 2.7193666e-01 -5.5892444e-03 
2.9852217e-01 2.7084970e-01 -5.6266496e-03 
3.0592793e-01 2.7841091e-01 -6.9442582e-03 
2.9749933e-01 2.6979372e-01 -5.2868095e-03 
2.9930001e-01 2.7145603e-01 -3.2958901e-03 
2.9821494e-01 2.7030560e-01 -2.5399481e-03 
2.9667789e-01 2.6882622e-01 -3.4423699e-03 
2.9715204e-01 2.6920941e-01 -2.2028238e-03 
3.0137309e-01 2.7374634e-01 -5.9593217e-03 
2.9781353e-01 2.7013519e-01 -5.6198761e-03 
2.9582611e-01 2.6804534e-01 -4.4539520e-03 
2.9595459e-01 2.6801330e-01 -2.3312191e-03 
2.9652664e-01 2.6884085e-01 -5.6419657e-03 
2.9746613e-01 2.6959768e-01 -3.1456894e-03 
3.0304688e-01 2.7550834e-01 -6.9535933e-03 
2.9879570e-01 2.7112925e-01 -5.6842454e-03 
2.9548469e-01 2.6776570e-01 -5.3007030e-03 
2.9489234e-01 2.6702619e-01 -3.4168214e-03 
2.9616600e-01 2.6823968e-01 -2.5054424e-03 
2.9842743e-01 2.7066505e-01 -4.4525908e-03 
2.9508373e-01 2.6712367e-01 -2.1616628e-03 
2.9403451e-01 2.6624081e-01 -4.4486164e-03 
2.9404920e-01 2.6609403e-01 -2.3213970e-03 
2.9561731e-01 2.6792175e-01 -5.6005176e-03 
2.9449323e-01 2.6679406e-01 -5.6571597e-03 
3.0016631e-01 2.7260679e-01 -6.9628567e-03 
2.9309586e-01 2.6521549e-01 -3.3912328e-03 
2.9520503e-01 2.6732913e-01 -3.2561447e-03 
2.9343161e-01 2.6569915e-01 -5.3144377e-03 
2.9407904e-01 2.6613572e-01 -2.4703334e-03 
2.9297706e-01 2.6499954e-01 -2.1199207e-03 
2.9223216e-01 2.6442552e-01 -4.4429530e-03 
2.9229477e-01 2.6433176e-01 -2.3742705e-03 
2.9375818e-01 2.6605165e-01 -5.6325286e-03 
2.9477993e-01 2.6708525e-01 -5.6938268e-03 
2.9242080e-01 2.6470810e-01 -5.6721293e-03 
2.9330283e-01 2.6540196e-01 -3.1004376e-03 
2.9128855e-01 2.6339409e-01 -3.3655751e-03 
2.9728657e-01 2.6970664e-01 -6.9719693e-03 
2.9430249e-01 2.6651138e-01 -4.4626258e-03 
2.9133886e-01 2.6359305e-01 -5.3280774e-03 
2.9195333e-01 2.6399297e-01 -2.4351454e-03 
2.9051802e-01 2.6254368e-01 -2.3782873e-03 
2.9041877e-01 2.6259971e-01 -4.4373111e-03 
2.9083097e-01 2.6283583e-01 -2.0773874e-03 
2.9147714e-01 2.6375294e-01 -5.6102332e-03 
2.8947014e-01 2.6156154e-01 -3.3395740e-03 
2.9030836e-01 2.6258221e-01 -5.6868023e-03 
2.9095683e-01 2.6304907e-01 -3.2173919e-03 
2.8920537e-01 2.6144606e-01 -5.3415154e-03 
2.8978765e-01 2.6181021e-01 -2.3992516e-03 
2.9274201e-01 2.6505548e-01 -5.9950212e-03 
2.9440790e-01 2.6680794e-01 -6.9806776e-03 
2.8859404e-01 2.6076218e-01 -4.4315839e-03 
2.8865847e-01 2.6066673e-01 -2.3111408e-03 
2.8864402e-01 2.6063147e-01 -2.0340311e-03 
2.8954524e-01 2.6181057e-01 -5.6436313e-03 
2.9060927e-01 2.6288617e-01 -5.7032863e-03 
2.8764027e-01 2.5971797e-01 -3.3135873e-03 
2.8815410e-01 2.6041460e-01 -5.7015480e-03 
2.8898215e-01 2.6104927e-01 -3.0557988e-03 
2.9002258e-01 2.6220337e-01 -4.4774506e-03 
2.8703311e-01 2.5902233e-01 -2.1955024e-03 
2.8896987e-01 2.6115364e-01 -4.6106507e-03 
2.8678611e-01 2.5893220e-01 -4.2946846e-03 
2.8702945e-01 2.5925678e-01 -5.3547542e-03 
2.8758007e-01 2.5958598e-01 -2.3632855e-03 
2.9153025e-01 2.6391003e-01 -6.9881687e-03 
2.8641480e-01 2.5838512e-01 -1.9902948e-03 
2.8579938e-01 2.5786355e-01 -3.2873517e-03 
2.8717342e-01 2.5942084e-01 -5.6182854e-03 
2.8595704e-01 2.5820410e-01 -5.7157553e-03 
2.8507465e-01 2.5704727e-01 -2.1325282e-03 
2.8491095e-01 2.5705442e-01 -4.4189445e-03 
2.8654507e-01 2.5860602e-01 -3.1795627e-03 
2.8481007e-01 2.5702411e-01 -5.3679910e-03 
2.8532955e-01 2.5731882e-01 -2.3265199e-03 
2.8394672e-01 2.5599751e-01 -3.2607364e-03 
2.8865373e-01 2.6101440e-01 -6.9955983e-03 
2.8414214e-01 2.5609538e-01 -1.9457897e-03 
2.8636649e-01 2.5862035e-01 -5.7710297e-03 
2.8495729e-01 2.5719041e-01 -5.6216652e-03 
2.8305179e-01 2.5518370e-01 -4.4122911e-03 
2.8371558e-01 2.5594941e-01 -5.7294527e-03 
2.8449300e-01 2.5652876e-01 -3.0117724e-03 
2.8306371e-01 2.5502247e-01 -2.1045459e-03 
2.8557733e-01 2.5773057e-01 -4.4973320e-03 
2.8254572e-01 2.5474668e-01 -5.3807390e-03 
2.8208214e-01 2.5412002e-01 -3.2337594e-03 
2.8303507e-01 2.5500819e-01 -2.2898638e-03 
2.8317091e-01 2.5539061e-01 -5.5884295e-03 
2.8182468e-01 2.5376135e-01 -1.9007032e-03 
2.8118089e-01 2.5330150e-01 -4.4052647e-03 
2.8124854e-01 2.5320289e-01 -2.1819661e-03 
2.8577986e-01 2.5812238e-01 -7.0025190e-03 
2.8412235e-01 2.5638068e-01 -6.0250340e-03 
2.8142875e-01 2.5364953e-01 -5.7425722e-03 
2.8069583e-01 2.5273725e-01 -3.3866137e-03 
2.8195968e-01 2.5399041e-01 -3.1431159e-03 
2.8020623e-01 2.5223190e-01 -3.2067946e-03 
2.8023532e-01 2.5242379e-01 -5.3922329e-03 
2.8069556e-01 2.5265282e-01 -2.2534493e-03 
2.7929851e-01 2.5140816e-01 -4.3980377e-03 
2.7935153e-01 2.5129580e-01 -2.1786874e-03 
2.8038856e-01 2.5259417e-01 -5.6250943e-03 
2.7946129e-01 2.5138226e-01 -1.8552761e-03 
2.8150237e-01 2.5373346e-01 -5.8769174e-03 
2.8142896e-01 2.5358164e-01 -4.8278640e-03 
2.8290677e-01 2.5523090e-01 -7.0078718e-03 
2.7909550e-01 2.5130373e-01 -5.7548168e-03 
2.7831849e-01 2.5033265e-01 -3.1801034e-03 
2.7959898e-01 2.5161570e-01 -3.1258380e-03 
2.7787763e-01 2.5005385e-01 -5.4035089e-03 
2.7770576e-01 2.4963099e-01 -2.0320220e-03 
2.7740499e-01 2.4950413e-01 -4.3900688e-03 
2.7830902e-01 2.5025135e-01 -2.2156956e-03 
2.7803439e-01 2.5022683e-01 -5.6262892e-03 
2.7705112e-01 2.4895655e-01 -1.8088067e-03 
2.7641997e-01 2.4842218e-01 -3.1531767e-03 
2.7671352e-01 2.4891001e-01 -5.7664388e-03 
2.7855134e-01 2.5068644e-01 -4.8062466e-03 
2.7830666e-01 2.5051326e-01 -5.7935640e-03 
2.8003654e-01 2.5234354e-01 -7.0126811e-03 
2.7719107e-01 2.4919425e-01 -3.1088945e-03 
2.7556971e-01 2.4748795e-01 -2.0837323e-03 
2.7546766e-01 2.4754559e-01 -4.2387662e-03 
2.7547058e-01 2.4763581e-01 -5.4145628e-03 
2.7587494e-01 2.4780311e-01 -2.1783120e-03 
2.7450877e-01 2.4650010e-01 -3.1254364e-03 
2.7601346e-01 2.4819325e-01 -5.5951076e-03 
2.7459204e-01 2.4648307e-01 -1.7620886e-03 
2.7428219e-01 2.4646752e-01 -5.7773408e-03 
2.7358189e-01 2.4566171e-01 -4.3744640e-03 
2.7365214e-01 2.4556008e-01 -2.0502966e-03 
2.7473453e-01 2.4672520e-01 -3.0924599e-03 
2.7582127e-01 2.4794793e-01 -4.8785000e-03 
2.7717012e-01 2.4946126e-01 -7.0164017e-03 
2.7301341e-01 2.4516787e-01 -5.4248953e-03 
2.7532759e-01 2.4752484e-01 -5.8720214e-03 
2.7258524e-01 2.4456669e-01 -3.0969479e-03 
2.7339137e-01 2.4530618e-01 -2.1406030e-03 
2.7350208e-01 2.4566966e-01 -5.5886069e-03 
2.7165154e-01 2.4372318e-01 -4.3657580e-03 
2.7172258e-01 2.4362139e-01 -2.0166014e-03 
2.7208275e-01 2.4396019e-01 -1.7144642e-03 
2.7179942e-01 2.4397443e-01 -5.7875412e-03 
2.7222788e-01 2.4420713e-01 -3.0764823e-03 
2.7064946e-01 2.4262205e-01 -3.0690664e-03 
2.7307099e-01 2.4517751e-01 -4.7717807e-03 
2.7430791e-01 2.4658453e-01 -7.0185699e-03 
2.7050376e-01 2.4264871e-01 -5.4344567e-03 
2.7085653e-01 2.4275920e-01 -2.1025478e-03 
2.7255660e-01 2.4474303e-01 -5.8970531e-03 
2.6970914e-01 2.4177276e-01 -4.3566679e-03 
2.6978123e-01 2.4167082e-01 -1.9830309e-03 
2.7086851e-01 2.4302498e-01 -5.5869520e-03 
2.6952121e-01 2.4138664e-01 -1.6660516e-03 
2.6870152e-01 2.4066544e-01 -3.0414856e-03 
2.6926324e-01 2.4142933e-01 -5.7967990e-03 
2.6966906e-01 2.4163806e-01 -3.0611265e-03 
2.6775494e-01 2.3981147e-01 -4.3474021e-03 
2.6782751e-01 2.3970796e-01 -1.9486793e-03 
2.6793975e-01 2.4007671e-01 -5.4435530e-03 
2.7145037e-01 2.4371363e-01 -7.0194914e-03 
2.6826867e-01 2.4016069e-01 -2.0641964e-03 
2.6982579e-01 2.4191162e-01 -4.6627754e-03 
2.6980826e-01 2.4198563e-01 -5.9257299e-03 
2.6674119e-01 2.3869701e-01 -3.0126146e-03 
2.6818892e-01 2.4033551e-01 -5.5838800e-03 
2.6690581e-01 2.3876069e-01 -1.6174616e-03 
2.6667231e-01 2.3883061e-01 -5.8047008e-03 
2.6747012e-01 2.3944485e-01 -3.2310092e-03 
2.6578718e-01 2.3783773e-01 -4.3379478e-03 
2.6586136e-01 2.3773512e-01 -1.9156858e-03 
2.6532000e-01 2.3745006e-01 -5.4512313e-03 
2.6859656e-01 2.4084817e-01 -7.0213061e-03 
2.6476815e-01 2.3671846e-01 -2.9853468e-03 
2.6562685e-01 2.3750927e-01 -2.0255239e-03 
2.6700783e-01 2.3917472e-01 -5.9183207e-03 
2.6673785e-01 2.3882815e-01 -4.8683477e-03 
2.6548645e-01 2.3762453e-01 -5.5810492e-03 
2.6380774e-01 2.3585363e-01 -4.3288963e-03 
2.6388189e-01 2.3574996e-01 -1.8818261e-03 
2.6423597e-01 2.3608136e-01 -1.5673036e-03 
2.6402506e-01 2.3617691e-01 -5.8112005e-03 
2.6481670e-01 2.3679249e-01 -3.3394690e-03 
2.6278204e-01 2.3472653e-01 -2.9573697e-03 
2.6264417e-01 2.3476839e-01 -5.4575852e-03 
2.6262942e-01 2.3459034e-01 -3.1966476e-03 
2.6574802e-01 2.3799063e-01 -7.0217522e-03 
2.6292911e-01 2.3480362e-01 -1.9866372e-03 
2.6422510e-01 2.3638047e-01 -5.8684461e-03 
2.6181540e-01 2.3385680e-01 -4.3176063e-03 
2.6188964e-01 2.3375143e-01 -1.8473264e-03 
2.6275823e-01 2.3489004e-01 -5.5813189e-03 
2.6391742e-01 2.3600666e-01 -4.9551087e-03 
2.6150870e-01 2.3334646e-01 -1.5172977e-03 
2.6078373e-01 2.3272263e-01 -2.9277485e-03 
2.6131952e-01 2.3346652e-01 -5.8166692e-03 
2.6205420e-01 2.3402539e-01 -3.3415088e-03 
2.5980935e-01 2.3184736e-01 -4.3076058e-03 
2.5988576e-01 2.3174295e-01 -1.8132048e-03 
2.5990668e-01 2.3202802e-01 -5.4625357e-03 
2.6290375e-01 2.3513868e-01 -7.0211808e-03 
2.6017344e-01 2.3204200e-01 -1.9476588e-03 
2.6144078e-01 2.3358978e-01 -5.8581862e-03 
2.5877172e-01 2.3070768e-01 -2.8994780e-03 
2.6000053e-01 2.3212819e-01 -5.5786213e-03 
2.6115462e-01 2.3324774e-01 -5.0754561e-03 
2.5851426e-01 2.3051542e-01 -3.8029901e-03 
2.5872245e-01 2.3055491e-01 -1.4652412e-03 
2.5855312e-01 2.3069742e-01 -5.8202608e-03 
2.5779080e-01 2.2982752e-01 -4.2969710e-03 
2.5920606e-01 2.3117872e-01 -3.3983144e-03 
2.5765121e-01 2.2949775e-01 -1.6734948e-03 
2.5710890e-01 2.2922848e-01 -5.4670153e-03 
2.5674629e-01 2.2868001e-01 -2.8702386e-03 
2.6006621e-01 2.3229642e-01 -7.0189829e-03 
2.5739008e-01 2.2926575e-01 -2.0558499e-03 
2.5855100e-01 2.3069423e-01 -5.8172774e-03 
2.5727811e-01 2.2940427e-01 -5.5919299e-03 
2.5849149e-01 2.3060037e-01 -5.3309933e-03 
2.5576481e-01 2.2780043e-01 -4.2771925e-03 
2.5584191e-01 2.2769473e-01 -1.7467873e-03 
2.5587511e-01 2.2770388e-01 -1.4131126e-03 
2.5573599e-01 2.2787955e-01 -5.8219372e-03 
2.5472194e-01 2.2665416e-01 -2.8416582e-03 
2.5580239e-01 2.2777522e-01 -3.4124383e-03 
2.5427091e-01 2.2639136e-01 -5.4700607e-03 
2.5723654e-01 2.2946437e-01 -7.0139281e-03 
2.5374573e-01 2.2577953e-01 -4.2509898e-03 
2.5382364e-01 2.2567515e-01 -1.7187763e-03 
2.5451630e-01 2.2637780e-01 -1.8465316e-03 
2.5566563e-01 2.2777365e-01 -5.3278878e-03 
2.5510821e-01 2.2725137e-01 -5.8236797e-03 
2.5396016e-01 2.2608663e-01 -5.5813179e-03 
2.5271043e-01 2.2464216e-01 -2.8138102e-03 
2.5303948e-01 2.2486667e-01 -1.3599457e-03 
2.5291899e-01 2.2506398e-01 -5.8252513e-03 
2.5311303e-01 2.2505026e-01 -2.8821379e-03 
2.5174087e-01 2.2377460e-01 -4.2233947e-03 
2.5173694e-01 2.2358009e-01 -1.5744154e-03 
2.5147808e-01 2.2360042e-01 -5.4717711e-03 
2.5441206e-01 2.2663951e-01 -7.0082918e-03 
2.5169903e-01 2.2355953e-01 -1.7806926e-03 
2.5071251e-01 2.2264472e-01 -2.7849909e-03 
2.5157085e-01 2.2369967e-01 -5.5940831e-03 
2.5255165e-01 2.2461049e-01 -4.6013631e-03 
2.5280371e-01 2.2496606e-01 -6.0614324e-03 
2.5151357e-01 2.2364254e-01 -5.5903560e-03 
2.5024453e-01 2.2207260e-01 -1.3095859e-03 
2.4974793e-01 2.2178286e-01 -4.1955197e-03 
2.4982609e-01 2.2167958e-01 -1.6636568e-03 
2.5014699e-01 2.2229396e-01 -5.8260844e-03 
2.5031650e-01 2.2225109e-01 -2.7888655e-03 
2.4872780e-01 2.2066282e-01 -2.7571851e-03 
2.4872977e-01 2.2085558e-01 -5.4707220e-03 
2.5159374e-01 2.2382386e-01 -7.0045358e-03 
2.4892335e-01 2.2078477e-01 -1.7170670e-03 
2.4811350e-01 2.1995908e-01 -1.4906974e-03 
2.4777026e-01 2.1980745e-01 -4.1665360e-03 
2.4881959e-01 2.2095144e-01 -5.5974191e-03 
2.4998951e-01 2.2215414e-01 -6.0572918e-03 
2.5002834e-01 2.2214068e-01 -5.3195455e-03 
2.4749069e-01 2.1932158e-01 -1.2601382e-03 
2.4887758e-01 2.2090130e-01 -4.0435684e-03 
2.4741870e-01 2.1957062e-01 -5.8250320e-03 
2.4675781e-01 2.1869476e-01 -2.7288820e-03 
2.4831201e-01 2.2044387e-01 -5.5803680e-03 
2.4756142e-01 2.1949585e-01 -2.6987644e-03 
2.4580476e-01 2.1784435e-01 -4.1385223e-03 
2.4602431e-01 2.1815675e-01 -5.4689846e-03 
2.4877723e-01 2.2100918e-01 -6.9958987e-03 
2.4618848e-01 2.1805328e-01 -1.6553119e-03 
2.4557494e-01 2.1742295e-01 -1.4244721e-03 
2.4611220e-01 2.1825077e-01 -5.5996785e-03 
2.4479856e-01 2.1674071e-01 -2.7015256e-03 
2.4717802e-01 2.1934545e-01 -6.0519939e-03 
2.4721584e-01 2.1933147e-01 -5.3141732e-03 
2.4477687e-01 2.1661395e-01 -1.2113877e-03 
2.4473332e-01 2.1689293e-01 -5.8225947e-03 
2.4385209e-01 2.1589690e-01 -4.1084173e-03 
2.4393049e-01 2.1579544e-01 -1.5834509e-03 
2.4559256e-01 2.1760921e-01 -3.8158803e-03 
2.4550991e-01 2.1764736e-01 -5.5681616e-03 
2.4484713e-01 2.1678431e-01 -2.6113929e-03 
2.4368832e-01 2.1563277e-01 -2.6825469e-03 
2.4336202e-01 2.1550362e-01 -5.4650516e-03 
2.4285407e-01 2.1480192e-01 -2.6743412e-03 
2.4596755e-01 2.1820298e-01 -6.9863657e-03 
2.4304363e-01 2.1488814e-01 -1.2266329e-03 
2.4349405e-01 2.1536465e-01 -1.5955676e-03 
2.4344788e-01 2.1559501e-01 -5.6010047e-03 
2.4437553e-01 2.1655005e-01 -6.0445797e-03 
2.4441212e-01 2.1653561e-01 -5.3077620e-03 
2.4191417e-01 2.1396570e-01 -4.0780641e-03 
2.4199052e-01 2.1386288e-01 -1.5580488e-03 
2.4199471e-01 2.1399133e-01 -3.3234251e-03 
2.4210188e-01 2.1394756e-01 -1.1657033e-03 
2.4212734e-01 2.1414861e-01 -3.6806518e-03 
2.4209203e-01 2.1426049e-01 -5.8174031e-03 
2.4279614e-01 2.1482433e-01 -3.8134069e-03 
2.4271621e-01 2.1486287e-01 -5.5542262e-03 
2.4217346e-01 2.1411608e-01 -2.5280800e-03 
2.4092393e-01 2.1287879e-01 -2.6458637e-03 
2.4111101e-01 2.1296348e-01 -1.2012562e-03 
2.4074239e-01 2.1289429e-01 -5.4573379e-03 
2.4024497e-01 2.1213149e-01 -1.6287450e-03 
2.4083711e-01 2.1271695e-01 -1.5368690e-03 
2.4316671e-01 2.1541013e-01 -6.9751358e-03 
2.4040988e-01 2.1236743e-01 -2.6514996e-03 
2.3998974e-01 2.1204785e-01 -4.0475400e-03 
2.4082747e-01 2.1298622e-01 -5.6023318e-03 
2.4158162e-01 2.1376742e-01 -6.0357866e-03 
2.4161716e-01 2.1375251e-01 -5.3000688e-03 
2.3900737e-01 2.1097140e-01 -2.6196628e-03 
2.3946711e-01 2.1132451e-01 -1.1202160e-03 
2.3948967e-01 2.1167064e-01 -5.8105849e-03 
2.3953809e-01 2.1148886e-01 -2.4435741e-03 
2.4000786e-01 2.1204898e-01 -3.8124009e-03 
2.3993056e-01 2.1208949e-01 -5.5408510e-03 
2.3807953e-01 2.1014644e-01 -4.0179077e-03 
2.3839702e-01 2.1037273e-01 -2.7333251e-03 
2.3815499e-01 2.1004634e-01 -1.5089082e-03 
2.3816270e-01 2.1032773e-01 -5.4504769e-03 
2.3822008e-01 2.1011075e-01 -1.4803004e-03 
2.4037537e-01 2.1262981e-01 -6.9617252e-03 
2.3824632e-01 2.1041806e-01 -5.6003649e-03 
2.3710388e-01 2.0907797e-01 -2.5918705e-03 
2.3728797e-01 2.0915982e-01 -1.1470296e-03 
2.3692808e-01 2.0898271e-01 -3.7603311e-03 
2.3693073e-01 2.0912477e-01 -5.8022914e-03 
2.3686965e-01 2.0874025e-01 -1.0760756e-03 
2.3879717e-01 2.1099581e-01 -6.0250731e-03 
2.3883174e-01 2.1098027e-01 -5.2903271e-03 
2.3654802e-01 2.0853291e-01 -2.7018881e-03 
2.3637056e-01 2.0841019e-01 -3.4662080e-03 
2.3618090e-01 2.0825830e-01 -3.9872779e-03 
2.3625688e-01 2.0815989e-01 -1.4837321e-03 
2.3693991e-01 2.0890144e-01 -2.3635726e-03 
2.3722723e-01 2.0928514e-01 -3.8075135e-03 
2.3715231e-01 2.0932618e-01 -5.5251936e-03 
2.3562434e-01 2.0780428e-01 -5.4408563e-03 
2.3521285e-01 2.0719942e-01 -2.5652286e-03 
2.3539588e-01 2.0728040e-01 -1.1214815e-03 
2.3564182e-01 2.0754792e-01 -1.4264284e-03 
2.3570465e-01 2.0789188e-01 -5.5997656e-03 
2.3759240e-01 2.0985992e-01 -6.9465544e-03 
2.3429544e-01 2.0638482e-01 -3.9566769e-03 
2.3437233e-01 2.0628813e-01 -1.4590510e-03 
2.3431417e-01 2.0635690e-01 -3.3016927e-03 
2.3441043e-01 2.0662124e-01 -5.7925032e-03 
2.3430890e-01 2.0619628e-01 -1.0310068e-03 
2.3601966e-01 2.0823362e-01 -6.0127121e-03 
2.3605342e-01 2.0821767e-01 -5.2792141e-03 
2.3333459e-01 2.0533440e-01 -2.5402787e-03 