# vtk DataFile Version 4.0
vtk output
ASCII
DATASET UNSTRUCTURED_GRID
POINTS 6166 float
-4.3633327e-01 9.6409470e-01 4.4200001e+01 
-4.3633261e-01 9.6409082e-01 4.4079685e+01 
-3.2145375e-01 9.1276109e-01 4.4200001e+01 
-3.8566181e-01 8.4097892e-01 4.4200001e+01 
-3.3069235e-01 9.1895354e-01 4.4019413e+01 
-3.8473952e-01 8.3919770e-01 4.4024357e+01 
-4.3633196e-01 9.6408689e-01 4.3958702e+01 
-2.1293370e-01 8.4677851e-01 4.4200001e+01 
-2.9042658e-01 7.3813015e-01 4.4200001e+01 
-2.1019450e-01 8.4669626e-01 4.4077393e+01 
-2.8909999e-01 7.3605996e-01 4.4073399e+01 
-3.2963324e-01 9.1929907e-01 4.3898094e+01 
-3.8679782e-01 8.4179753e-01 4.3889645e+01 
-2.0740938e-01 8.4661204e-01 4.3952713e+01 
-4.3633130e-01 9.6408290e-01 4.3837040e+01 
-1.1677200e-01 7.7521002e-01 4.4200001e+01 
-2.8775173e-01 7.3395580e-01 4.3944717e+01 
-1.9365783e-01 6.6203654e-01 4.4200001e+01 
-1.1309985e-01 7.7540898e-01 4.4012005e+01 
-1.9181472e-01 6.5888047e-01 4.4006447e+01 
-3.2856464e-01 9.1964108e-01 4.3776085e+01 
-3.8823184e-01 8.4352189e-01 4.3765770e+01 
-2.0457739e-01 8.4652513e-01 4.3825886e+01 
-2.8638119e-01 7.3181647e-01 4.3813885e+01 
-4.3633065e-01 9.6407896e-01 4.3714680e+01 
-1.0911675e-01 7.7426714e-01 4.3886200e+01 
-2.1001574e-02 6.8269837e-01 4.4200001e+01 
-1.8902887e-01 6.5566909e-01 4.3876659e+01 
-7.8887597e-02 5.9015810e-01 4.4200001e+01 
-3.2748649e-01 9.1997939e-01 4.3653378e+01 
-3.9889076e-01 8.5876143e-01 4.3651733e+01 
-2.0169757e-01 8.4643483e-01 4.3696846e+01 
-7.2496021e-03 6.7325598e-01 4.3947758e+01 
-1.0504345e-01 7.7307969e-01 4.3758209e+01 
-2.8498772e-01 7.2964084e-01 4.3680840e+01 
-6.3224643e-02 5.7783771e-01 4.3940754e+01 
3.5808440e-02 6.2679136e-01 4.4056572e+01 
-1.8616955e-01 6.5238589e-01 4.3744686e+01 
-4.3632996e-01 9.6407503e-01 4.3591618e+01 
-9.8678423e-03 5.4892725e-01 4.4055367e+01 
-1.8652271e-02 6.8798620e-01 4.3834026e+01 
-7.9845116e-02 5.8636194e-01 4.3823372e+01 
8.7777540e-02 5.7885915e-01 4.4200001e+01 
5.3622175e-02 5.1732427e-01 4.4200001e+01 
-3.2639861e-01 9.2031354e-01 4.3529953e+01 
-3.9894739e-01 8.5844576e-01 4.3528313e+01 
-1.9876897e-01 8.4634024e-01 4.3565521e+01 
-1.0087753e-01 7.7184403e-01 4.3627972e+01 
-2.8357074e-01 7.2742778e-01 4.3545506e+01 
-1.8323407e-01 6.4902818e-01 4.3610458e+01 
-4.3632931e-01 9.6407109e-01 4.3467831e+01 
3.1033519e-03 6.6751039e-01 4.3691772e+01 
-5.3600248e-02 5.6906003e-01 4.3676846e+01 
1.2436585e-01 5.5082864e-01 4.3886215e+01 
1.7079005e-01 5.1095647e-01 4.4054855e+01 
1.4951277e-01 4.6697062e-01 4.4053665e+01 
1.0028158e-01 4.8915190e-01 4.3877911e+01 
-4.0513036e-01 8.6722642e-01 4.3405304e+01 
-3.2530096e-01 9.2064321e-01 4.3405800e+01 
-9.6616447e-02 7.7055699e-01 4.3495411e+01 
-8.4563000e-03 6.8258613e-01 4.3574005e+01 
-1.9579062e-01 8.4624058e-01 4.3431831e+01 
2.1753120e-01 4.7335833e-01 4.4200001e+01 
2.0360756e-01 4.4289169e-01 4.4200001e+01 
-1.8021962e-01 6.4559317e-01 4.3473904e+01 
-7.0636064e-02 5.7773441e-01 4.3555408e+01 
-2.8212959e-01 7.2517604e-01 4.3407806e+01 
-4.3632865e-01 9.6406716e-01 4.3343307e+01 
1.3810426e-01 5.4143524e-01 4.3628246e+01 
-3.2419339e-01 9.2096806e-01 4.3280907e+01 
-3.9903235e-01 8.5775709e-01 4.3279266e+01 
-9.2257597e-02 7.6921552e-01 4.3360443e+01 
1.1508528e-01 4.7804743e-01 4.3612068e+01 
-1.9276154e-01 8.4613472e-01 4.3295704e+01 
1.4013666e-02 6.6131532e-01 4.3426643e+01 
-1.7712323e-01 6.4207786e-01 4.3334946e+01 
-2.8066361e-01 7.2288430e-01 4.3267666e+01 
-4.3382257e-02 5.5983055e-01 4.3403778e+01 
-4.3632799e-01 9.6406323e-01 4.3218033e+01 
3.7877345e-01 3.8273901e-01 4.4200001e+01 
3.9076596e-01 3.7443376e-01 4.3993755e+01 
-3.2307580e-01 9.2128778e-01 4.3155251e+01 
-3.9906058e-01 8.5738426e-01 4.3153610e+01 
-8.7798268e-02 7.6781619e-01 4.3222996e+01 
1.9689407e-02 6.5803534e-01 4.3290459e+01 
-6.0862999e-02 5.6866169e-01 4.3278019e+01 
-1.8968078e-01 8.4602165e-01 4.3157055e+01 
-1.7394182e-01 6.3847917e-01 4.3193501e+01 
-4.3632734e-01 9.6405929e-01 4.3091995e+01 
4.0275589e-01 3.6612594e-01 4.3787510e+01 
1.2304078e-01 5.5709994e-01 4.3330139e+01 
-2.7917209e-01 7.2055119e-01 4.3125000e+01 
2.5336364e-01 4.4907436e-01 4.3468094e+01 
2.3670304e-01 4.1684708e-01 4.3469433e+01 
1.3086085e-01 4.6634668e-01 4.3336948e+01 
-3.8351217e-01 8.3473074e-01 4.3036392e+01 
-3.2194808e-01 9.2160189e-01 4.3028820e+01 
2.5518833e-02 6.5462554e-01 4.3151749e+01 
-8.3235659e-02 7.6635528e-01 4.3082981e+01 
4.1474071e-01 3.5781288e-01 4.3581264e+01 
-1.8654740e-01 8.4590012e-01 4.3015797e+01 
-3.2522827e-02 5.5011308e-01 4.3120937e+01 
-1.7067213e-01 6.3479382e-01 4.3049488e+01 
-4.3632668e-01 9.6405542e-01 4.2965172e+01 
-2.7765438e-01 7.1817529e-01 4.2979721e+01 
2.6620242e-01 4.4011977e-01 4.3261948e+01 
1.3584816e-02 6.7044950e-01 4.3025066e+01 
-3.2081014e-01 9.2191011e-01 4.2901604e+01 
-3.8160574e-01 8.3169121e-01 4.2902863e+01 
-7.8566879e-02 7.6482886e-01 4.2940315e+01 
-5.0480481e-02 5.5910730e-01 4.2990566e+01 
4.2671782e-01 3.4949207e-01 4.3375019e+01 
1.6821145e-01 5.2049083e-01 4.3083881e+01 
-1.8336046e-01 8.4576881e-01 4.2871841e+01 
-4.3632606e-01 9.6405160e-01 4.2837555e+01 
-1.6731077e-01 6.3101834e-01 4.2902817e+01 
1.4768846e-01 4.5400122e-01 4.3051926e+01 
-2.7610970e-01 7.1575516e-01 4.2831745e+01 
-3.1966189e-01 9.2221189e-01 4.2773579e+01 
-3.8560396e-01 8.3684862e-01 4.2767078e+01 
3.7660085e-02 6.4738947e-01 4.2866421e+01 
-7.3788933e-02 7.6323271e-01 4.2794899e+01 
4.3868470e-01 3.4116083e-01 4.3168777e+01 
-4.3632543e-01 9.6404779e-01 4.2709122e+01 
-2.0968946e-02 5.3986710e-01 4.2827656e+01 
-1.8011902e-01 8.4562629e-01 4.2725094e+01 
-1.6385415e-01 6.2714905e-01 4.2753403e+01 
-2.7453732e-01 7.1328926e-01 4.2680973e+01 
-3.1850323e-01 9.2250693e-01 4.2644733e+01 
-3.9907700e-01 8.5570478e-01 4.2643101e+01 
2.5504474e-02 6.6361672e-01 4.2734810e+01 
1.8471870e-01 5.0880390e-01 4.2796177e+01 
-6.8898737e-02 7.6156229e-01 4.2646645e+01 
-3.9438177e-02 5.4903054e-01 4.2692345e+01 
-4.3632481e-01 9.6404403e-01 4.2579861e+01 
4.5063871e-01 3.3281663e-01 4.2962532e+01 
1.6565691e-01 4.4095638e-01 4.2756321e+01 
-1.7682223e-01 8.4547096e-01 4.2575459e+01 
-1.6029853e-01 6.2318206e-01 4.2601143e+01 
-4.0415615e-01 8.6278629e-01 4.2516582e+01 
-3.1733403e-01 9.2279470e-01 4.2515053e+01 
-2.7293649e-01 7.1077597e-01 4.2527313e+01 
5.0482783e-02 6.3954860e-01 4.2569923e+01 
-4.3632418e-01 9.6404034e-01 4.2449757e+01 
-6.3893095e-02 7.5981271e-01 4.2495445e+01 
-8.6617703e-03 5.2904755e-01 4.2523201e+01 
-1.7346917e-01 8.4530097e-01 4.2422829e+01 
-1.5663996e-01 6.1911333e-01 4.2445942e+01 
3.0435190e-01 4.1341871e-01 4.2643494e+01 
4.6257737e-01 3.2445681e-01 4.2756287e+01 
-3.1615424e-01 9.2307472e-01 4.2384518e+01 
-3.9902648e-01 8.5475212e-01 4.2382885e+01 
-2.7130640e-01 7.0821363e-01 4.2370659e+01 
3.8079392e-02 6.5619886e-01 4.2433029e+01 
2.0230262e-01 4.9620378e-01 4.2497147e+01 
-4.3632355e-01 9.6403670e-01 4.2318787e+01 
-5.8768708e-02 7.5797862e-01 4.2341198e+01 
-2.7680276e-02 5.3838593e-01 4.2382599e+01 
1.8486446e-01 4.2715022e-01 4.2449394e+01 
-3.8436696e-01 8.3356136e-01 4.2264896e+01 
8.9545198e-02 5.3233254e-01 4.2382050e+01 
-3.3225983e-01 9.3122375e-01 4.2255634e+01 
-1.7005907e-01 8.4511453e-01 4.2267101e+01 
-1.5287429e-01 6.1493850e-01 4.2287693e+01 
4.7449806e-01 3.1607881e-01 4.2550037e+01 
-2.6964626e-01 7.0560038e-01 4.2210907e+01 
-4.3632296e-01 9.6403313e-01 4.2186939e+01 
6.4036883e-02 6.3103610e-01 4.2261456e+01 
-5.3522192e-02 7.5605446e-01 4.2183796e+01 
-3.7873057e-01 8.2541841e-01 4.2124020e+01 
-3.1376252e-01 9.2360973e-01 4.2120819e+01 
4.4639236e-03 5.1760370e-01 4.2206776e+01 
-1.6659111e-01 8.4490943e-01 4.2108162e+01 
-1.4899719e-01 6.1065292e-01 4.2126286e+01 
-4.3632239e-01 9.6402961e-01 4.2054195e+01 
4.8639825e-01 3.0768004e-01 4.2343792e+01 
-2.6795524e-01 7.0293444e-01 4.2047943e+01 
2.4746621e-01 4.6040925e-01 4.2191032e+01 
7.1105182e-02 6.2650448e-01 4.2102463e+01 
-3.1255043e-01 9.2386365e-01 4.1987617e+01 
-4.8150036e-02 7.5403398e-01 4.2023121e+01 
-1.5144684e-02 5.2712250e-01 4.2060505e+01 
-3.7995064e-01 8.2661813e-01 4.1980038e+01 
2.0541981e-01 4.1251117e-01 4.2130333e+01 
-1.6306458e-01 8.4468329e-01 4.1945896e+01 
-4.3632182e-01 9.6402621e-01 4.1920536e+01 
-1.4500406e-01 6.0625184e-01 4.1961609e+01 
1.3375351e-01 5.6370503e-01 4.1969833e+01 
-2.6623246e-01 7.0021385e-01 4.1881653e+01 
-3.1132740e-01 9.2410773e-01 4.1853493e+01 
-3.9880505e-01 8.5261923e-01 4.1851868e+01 
4.9827534e-01 2.9925787e-01 4.2137547e+01 
3.4194937e-01 3.8685825e-01 4.2025021e+01 
-4.2648647e-02 7.5191063e-01 4.1859051e+01 
-2.5401810e-01 7.9503769e-01 4.1808533e+01 
1.8480448e-02 5.0547802e-01 4.1877510e+01 
-4.3632126e-01 9.6402287e-01 4.1785946e+01 
-1.5947884e-01 8.4443361e-01 4.1780174e+01 
-1.4089009e-01 6.0172999e-01 4.1793541e+01 
-3.1009343e-01 9.2434150e-01 4.1718426e+01 
-4.0306881e-01 8.5845691e-01 4.1716179e+01 
8.5861288e-02 6.1683756e-01 4.1774368e+01 
-2.6447710e-01 6.9743657e-01 4.1711910e+01 
3.0427080e-01 4.1638452e-01 4.1839512e+01 
2.6751360e-01 3.7833902e-01 4.1830902e+01 
5.1012677e-01 2.9080975e-01 4.1931297e+01 
-3.7014309e-02 7.4967718e-01 4.1691463e+01 
-4.3632072e-01 9.6401966e-01 4.1650398e+01 
2.5847588e-02 4.9913955e-01 4.1707767e+01 
-1.5583332e-01 8.4415752e-01 4.1610870e+01 
-3.8322043e-01 8.2981020e-01 4.1595791e+01 
-3.0884841e-01 9.2456430e-01 4.1582397e+01 
-1.3665022e-01 5.9708190e-01 4.1621960e+01 
9.3565010e-02 6.1167872e-01 4.1605015e+01 
-2.6268822e-01 6.9460052e-01 4.1538593e+01 
-4.3632022e-01 9.6401656e-01 4.1513885e+01 
-3.1243213e-02 7.4732590e-01 4.1520226e+01 
2.7603787e-01 3.7115356e-01 4.1624012e+01 
2.8505871e-01 4.3281260e-01 4.1611507e+01 
5.2195001e-01 2.8233302e-01 4.1725052e+01 
3.3468332e-02 4.9260557e-01 4.1534447e+01 
-3.9853087e-01 8.5081697e-01 4.1443768e+01 
-3.2560509e-01 9.3245691e-01 4.1443577e+01 
-1.5212752e-01 8.4385180e-01 4.1437847e+01 
-1.3227913e-01 5.9230179e-01 4.1446728e+01 
-4.3631971e-01 9.6401358e-01 4.1376381e+01 
[...]
POINT_DATA 6166
FIELD FieldData 5
DISPLACEMENT 3 6166  float
9.2620474e-01 8.4765667e-01 -3.0265765e-02 
9.2058110e-01 8.4199530e-01 -3.0000767e-02 
9.2606682e-01 8.4743315e-01 -3.3209313e-02 
9.2611969e-01 8.4766966e-01 -2.6830139e-02 
9.1763777e-01 8.3895159e-01 -3.2672331e-02 
9.1790867e-01 8.3940470e-01 -2.6402650e-02 
9.1492629e-01 8.3630258e-01 -2.9734258e-02 
9.2593229e-01 8.4724140e-01 -3.5165790e-02 
9.2599082e-01 8.4755129e-01 -2.6429540e-02 
9.2019868e-01 8.4146577e-01 -3.5019893e-02 
9.2007142e-01 8.4159327e-01 -2.6115254e-02 
9.1196609e-01 8.3324003e-01 -3.2470930e-02 
9.1161507e-01 8.3306813e-01 -2.6132567e-02 
9.1436791e-01 8.3559227e-01 -3.4871433e-02 
9.0923965e-01 8.3057785e-01 -2.9466221e-02 
9.2580992e-01 8.4708601e-01 -3.6282230e-02 
9.1405481e-01 8.3553731e-01 -2.5795845e-02 
9.2586660e-01 8.4739947e-01 -2.7361106e-02 
9.1701913e-01 8.3823103e-01 -3.6049191e-02 
9.1681725e-01 8.3829117e-01 -2.6872436e-02 
9.0626234e-01 8.2749623e-01 -3.2268211e-02 
9.0582716e-01 8.2724094e-01 -2.5874265e-02 
9.0843689e-01 8.2961792e-01 -3.4720253e-02 
9.0793794e-01 8.2938039e-01 -2.5471212e-02 
9.0352070e-01 8.2482064e-01 -2.9196646e-02 
9.1113424e-01 8.3230293e-01 -3.5904307e-02 
9.2568290e-01 8.4695482e-01 -3.6393594e-02 
9.1074699e-01 8.3218086e-01 -2.6565578e-02 
9.2572373e-01 8.4719896e-01 -2.9331468e-02 
9.0052605e-01 8.2171965e-01 -3.2064121e-02 
9.0051270e-01 8.2188451e-01 -2.5843855e-02 
9.0240258e-01 8.2353956e-01 -3.4566175e-02 
9.1387576e-01 8.3506274e-01 -3.6035337e-02 
9.0514749e-01 8.2627225e-01 -3.5756618e-02 
9.0171754e-01 8.2311952e-01 -2.5141254e-02 
9.1358650e-01 8.3497596e-01 -2.8911533e-02 
9.1890347e-01 8.4012926e-01 -3.6095403e-02 
9.0457481e-01 8.2596797e-01 -2.6254157e-02 
8.9776891e-01 8.1903040e-01 -2.8925559e-02 
9.1887802e-01 8.4027046e-01 -3.0292029e-02 
9.0857613e-01 8.2972294e-01 -3.5946749e-02 
9.0812021e-01 8.2948387e-01 -2.8279154e-02 
9.2553884e-01 8.4680432e-01 -3.6578409e-02 
9.2556119e-01 8.4695613e-01 -3.2084785e-02 
8.9475662e-01 8.1591004e-01 -3.1858739e-02 
8.9474434e-01 8.1607819e-01 -2.5554970e-02 
8.9626175e-01 8.1735408e-01 -3.4409031e-02 
8.9905566e-01 8.2013589e-01 -3.5605915e-02 
8.9539057e-01 8.1675124e-01 -2.4805719e-02 
8.9829743e-01 8.1964934e-01 -2.5937878e-02 
8.9198369e-01 8.1320691e-01 -2.8652720e-02 
9.0189862e-01 8.2299936e-01 -3.5684194e-02 
9.0123886e-01 8.2254481e-01 -2.8366670e-02 
9.1082561e-01 8.3198118e-01 -3.6274716e-02 
9.1864747e-01 8.3984715e-01 -3.6934201e-02 
9.1860443e-01 8.3989203e-01 -3.3865932e-02 
9.1044885e-01 8.3171785e-01 -3.2226346e-02 
8.8900495e-01 8.1029707e-01 -2.5409631e-02 
8.8895345e-01 8.1006658e-01 -3.1651683e-02 
8.9285553e-01 8.1389052e-01 -3.5451982e-02 
8.9641106e-01 8.1747025e-01 -3.5595529e-02 
8.9001095e-01 8.1105793e-01 -3.4248631e-02 
9.2537135e-01 8.4660447e-01 -3.7663851e-02 
9.2537916e-01 8.4667230e-01 -3.5578411e-02 
8.9191169e-01 8.1322163e-01 -2.5616962e-02 
8.9558434e-01 8.1686372e-01 -2.7713398e-02 
8.8895375e-01 8.1027275e-01 -2.4464838e-02 
8.8616490e-01 8.0734944e-01 -2.8378524e-02 
8.9875120e-01 8.1982028e-01 -3.5905421e-02 
8.8311654e-01 8.0418944e-01 -3.1443592e-02 
8.8310671e-01 8.0436450e-01 -2.4971511e-02 
8.8654375e-01 8.0753297e-01 -3.5294585e-02 
8.9800477e-01 8.1918573e-01 -3.1809311e-02 
8.8364691e-01 8.0464816e-01 -3.4084670e-02 
8.8949484e-01 8.1050670e-01 -3.5317514e-02 
8.8541430e-01 8.0668175e-01 -2.5291201e-02 
8.8240349e-01 8.0368018e-01 -2.4117855e-02 
8.8846415e-01 8.0968398e-01 -2.7808951e-02 
8.8031161e-01 8.0145776e-01 -2.8102528e-02 
9.2517310e-01 8.4631103e-01 -4.0920153e-02 
9.1551805e-01 8.3658612e-01 -4.0634550e-02 
8.7724489e-01 7.9827720e-01 -3.1233871e-02 
8.7723649e-01 7.9845601e-01 -2.4676893e-02 
8.8011676e-01 8.0105984e-01 -3.5133500e-02 
8.8312459e-01 8.0409127e-01 -3.5127614e-02 
8.8260978e-01 8.0380243e-01 -2.7133632e-02 
8.7716579e-01 7.9812104e-01 -3.3916857e-02 
8.7880188e-01 8.0002642e-01 -2.4960471e-02 
8.7442344e-01 7.9553121e-01 -2.7824942e-02 
9.0586305e-01 8.2686150e-01 -4.0348615e-02 
8.8484061e-01 8.0581635e-01 -3.5283465e-02 
8.7573653e-01 7.9697073e-01 -2.3765221e-02 
8.9111817e-01 8.1210685e-01 -3.6580727e-02 
8.9119112e-01 8.1224614e-01 -3.4288198e-02 
8.8512790e-01 8.0621809e-01 -3.1389322e-02 
8.7173867e-01 7.9293221e-01 -2.4078900e-02 
8.7133813e-01 7.9233044e-01 -3.1022178e-02 
8.7663740e-01 7.9755878e-01 -3.4933347e-02 
8.7357098e-01 7.9446757e-01 -3.4968629e-02 
8.9620882e-01 8.1713820e-01 -4.0062033e-02 
8.7056446e-01 7.9147309e-01 -3.3745788e-02 
8.7523580e-01 7.9636765e-01 -2.7238285e-02 
8.7207043e-01 7.9325193e-01 -2.4624184e-02 
8.6850011e-01 7.8956962e-01 -2.7545568e-02 
8.6894912e-01 7.9014027e-01 -2.3406545e-02 
8.8146996e-01 8.0238980e-01 -3.6303338e-02 
8.7073749e-01 7.9161525e-01 -3.4842484e-02 
8.6539572e-01 7.8634852e-01 -3.0809257e-02 
8.6549979e-01 7.8665483e-01 -2.3731980e-02 
8.6690265e-01 7.8775239e-01 -3.4799546e-02 
8.6916906e-01 7.9027349e-01 -2.6539020e-02 
8.8655698e-01 8.0741721e-01 -3.9773874e-02 
8.7327832e-01 7.9416764e-01 -3.5124935e-02 
8.6383861e-01 7.8470039e-01 -3.3570293e-02 
8.6254036e-01 7.8357214e-01 -2.7264293e-02 
8.6521673e-01 7.8635478e-01 -2.4283333e-02 
8.7179202e-01 7.9278952e-01 -3.0968165e-02 
8.6203718e-01 7.8318566e-01 -2.3041846e-02 
8.5941690e-01 7.8033042e-01 -3.0594410e-02 
8.5916591e-01 7.8027886e-01 -2.3491418e-02 
8.6329740e-01 7.8412700e-01 -3.4530099e-02 
8.6010790e-01 7.8091061e-01 -3.4626059e-02 
8.7690532e-01 7.9769731e-01 -3.9485250e-02 
8.5654449e-01 7.7753907e-01 -2.6981751e-02 
8.6152500e-01 7.8256762e-01 -2.6653614e-02 
8.5698450e-01 7.7779967e-01 -3.3390235e-02 
8.5823625e-01 7.7933121e-01 -2.3936488e-02 
8.5499769e-01 7.7610320e-01 -2.2671409e-02 
8.5340214e-01 7.7427655e-01 -3.0377593e-02 
8.5339916e-01 7.7446884e-01 -2.3479538e-02 
8.5717124e-01 7.7795649e-01 -3.4436464e-02 
8.5982323e-01 7.8062057e-01 -3.4711841e-02 
8.5318291e-01 7.7393860e-01 -3.4447365e-02 
8.5523212e-01 7.7624762e-01 -2.5928840e-02 
8.5051286e-01 7.7147019e-01 -2.6698101e-02 
8.6725813e-01 7.8798378e-01 -3.9195612e-02 
8.5796732e-01 7.7887017e-01 -3.0544963e-02 
8.4999865e-01 7.7076733e-01 -3.3205431e-02 
8.5112667e-01 7.7217788e-01 -2.3585463e-02 
8.4750319e-01 7.6853466e-01 -2.3299951e-02 
8.4735101e-01 7.6818776e-01 -3.0160077e-02 
8.4782672e-01 7.6888895e-01 -2.2293905e-02 
8.4944499e-01 7.7018213e-01 -3.4104705e-02 
8.4444398e-01 7.6536494e-01 -2.6412105e-02 
8.4612465e-01 7.6683378e-01 -3.4263678e-02 
8.4730315e-01 7.6825643e-01 -2.6056062e-02 
8.4287649e-01 7.6359874e-01 -3.3015739e-02 
8.4388417e-01 7.6489180e-01 -2.3227498e-02 
8.5254598e-01 7.7326727e-01 -3.5464674e-02 
8.5761595e-01 7.7827716e-01 -3.8904723e-02 
8.4126234e-01 7.6206017e-01 -2.9940713e-02 
8.4126204e-01 7.6225919e-01 -2.2870811e-02 
8.4051973e-01 7.6153946e-01 -2.1909669e-02 
8.4307897e-01 7.6377267e-01 -3.4008529e-02 
8.4584993e-01 7.6655585e-01 -3.4281202e-02 
8.3833784e-01 7.5922245e-01 -2.6125185e-02 
8.3892673e-01 7.5958943e-01 -3.4075454e-02 
8.4077048e-01 7.6169753e-01 -2.5303917e-02 
8.4362531e-01 7.6443458e-01 -3.0120842e-02 
8.3574188e-01 7.5671518e-01 -2.2302972e-02 
8.4061563e-01 7.6139289e-01 -3.0475356e-02 
8.3527488e-01 7.5604832e-01 -2.9289216e-02 
8.3561385e-01 7.5628972e-01 -3.2820951e-02 
8.3650160e-01 7.5746691e-01 -2.2865318e-02 
8.4797800e-01 7.6857466e-01 -3.8611200e-02 
8.3307242e-01 7.5405055e-01 -2.1519968e-02 
8.3219475e-01 7.5304437e-01 -2.5836512e-02 
8.3504623e-01 7.5569248e-01 -3.3656538e-02 
8.3158648e-01 7.5220239e-01 -3.3881091e-02 
8.2917100e-01 7.5011104e-01 -2.1877632e-02 
8.2897359e-01 7.4969703e-01 -2.9494999e-02 
8.3253545e-01 7.5340033e-01 -2.5444025e-02 
8.2820672e-01 7.4883658e-01 -3.2621682e-02 
8.2897633e-01 7.4989986e-01 -2.2496019e-02 
8.2601362e-01 7.4682844e-01 -2.5545549e-02 
8.3834577e-01 7.5888163e-01 -3.8316302e-02 
8.2548064e-01 7.4641746e-01 -2.1123027e-02 
8.3152348e-01 7.5213456e-01 -3.4031108e-02 
8.2763261e-01 7.4823272e-01 -3.3423278e-02 
8.2277143e-01 7.4346012e-01 -2.9270031e-02 
8.2409853e-01 7.4466872e-01 -3.3679962e-02 
8.2574713e-01 7.4658751e-01 -2.4663331e-02 
8.2246906e-01 7.4337280e-01 -2.1565530e-02 
8.2873017e-01 7.4944562e-01 -2.9695563e-02 
8.2065016e-01 7.4123448e-01 -3.2415558e-02 
8.1979239e-01 7.4057448e-01 -2.5252402e-02 
8.2130510e-01 7.4218792e-01 -2.2122994e-02 
8.2137513e-01 7.4194294e-01 -3.3099838e-02 
8.1774074e-01 7.3863810e-01 -2.0720299e-02 
8.1653053e-01 7.3718512e-01 -2.9041952e-02 
8.1653398e-01 7.3739642e-01 -2.1631878e-02 
8.2872432e-01 7.4920261e-01 -3.8019687e-02 
8.2367432e-01 7.4421471e-01 -3.4608938e-02 
8.1646013e-01 7.3698533e-01 -3.3472039e-02 
8.1434953e-01 7.3508793e-01 -2.5565840e-02 
8.1718975e-01 7.3796928e-01 -2.4818646e-02 
8.1353420e-01 7.3428535e-01 -2.4957994e-02 
8.1294131e-01 7.3348284e-01 -3.2200385e-02 
8.1348485e-01 7.3432744e-01 -2.1746349e-02 
8.1025171e-01 7.3087394e-01 -2.8812390e-02 
8.1023455e-01 7.3106474e-01 -2.1416752e-02 
8.1235129e-01 7.3286468e-01 -3.2930683e-02 
8.0984885e-01 7.3070902e-01 -2.0312134e-02 
8.1509054e-01 7.3559588e-01 -3.3836566e-02 
8.1472015e-01 7.3532391e-01 -3.0331252e-02 
8.1910723e-01 7.3952717e-01 -3.7718952e-02 
8.0866796e-01 7.2914982e-01 -3.3256475e-02 
8.0723792e-01 7.2795945e-01 -2.4664322e-02 
8.0929190e-01 7.3003137e-01 -2.4503428e-02 
8.0507654e-01 7.2557575e-01 -3.1979565e-02 
8.0461687e-01 7.2543263e-01 -2.0743847e-02 
8.0393732e-01 7.2452879e-01 -2.8579412e-02 
8.0550891e-01 7.2631556e-01 -2.1360742e-02 
8.0447930e-01 7.2495115e-01 -3.2675866e-02 
8.0180299e-01 7.2262710e-01 -1.9896345e-02 
8.0090737e-01 7.2159863e-01 -2.4368793e-02 
8.0071473e-01 7.2115660e-01 -3.3033524e-02 
8.0509895e-01 7.2565454e-01 -2.9943423e-02 
8.0452466e-01 7.2498208e-01 -3.3213533e-02 
8.0950445e-01 7.2987175e-01 -3.7415713e-02 
8.0123711e-01 7.2193897e-01 -2.4183270e-02 
7.9759222e-01 7.1836686e-01 -2.0689867e-02 
7.9752290e-01 7.1809554e-01 -2.7867910e-02 
7.9704857e-01 7.1750981e-01 -3.1753477e-02 
7.9737633e-01 7.1814829e-01 -2.0972310e-02 
7.9453534e-01 7.1519953e-01 -2.4069645e-02 
7.9757839e-01 7.1802080e-01 -3.2341283e-02 
7.9359573e-01 7.1438670e-01 -1.9475328e-02 
7.9259861e-01 7.1300232e-01 -3.2803334e-02 
7.9119277e-01 7.1172649e-01 -2.8111851e-02 
7.9119796e-01 7.1194935e-01 -2.0372014e-02 
7.9302233e-01 7.1368909e-01 -2.3860859e-02 
7.9594070e-01 7.1644646e-01 -2.9882377e-02 
7.9991728e-01 7.2023612e-01 -3.7111081e-02 
7.8885621e-01 7.0928019e-01 -3.1519555e-02 
7.9444945e-01 7.1485293e-01 -3.3140209e-02 
7.8812361e-01 7.0876491e-01 -2.3766570e-02 
7.8908056e-01 7.0982087e-01 -2.0578217e-02 
7.8910255e-01 7.0950955e-01 -3.2039400e-02 
7.8475976e-01 7.0526969e-01 -2.7873442e-02 
7.8476590e-01 7.0549780e-01 -2.0052511e-02 
7.8522360e-01 7.0598519e-01 -1.9046543e-02 
7.8431314e-01 7.0468163e-01 -3.2565713e-02 
7.8464228e-01 7.0527750e-01 -2.3535298e-02 
7.8167278e-01 7.0229435e-01 -2.3464927e-02 
7.8678286e-01 7.0726144e-01 -2.9228222e-02 
7.9034728e-01 7.1062219e-01 -3.6802676e-02 
7.8049105e-01 7.0088202e-01 -3.1278122e-02 
7.8061616e-01 7.0132887e-01 -2.0178260e-02 
7.8515422e-01 7.0551759e-01 -3.2916483e-02 
7.7828825e-01 6.9877541e-01 -2.7632594e-02 
7.7829641e-01 6.9900805e-01 -1.9732108e-02 
7.8029048e-01 7.0066428e-01 -3.1744469e-02 
7.7667981e-01 6.9741738e-01 -1.8610861e-02 
7.7518374e-01 6.9578469e-01 -2.3163626e-02 
7.7585173e-01 6.9618994e-01 -3.2319713e-02 
7.7609062e-01 6.9669789e-01 -2.3206528e-02 
7.7177954e-01 6.9224662e-01 -2.7390670e-02 
7.7178711e-01 6.9247919e-01 -1.9408222e-02 
7.7194732e-01 6.9231081e-01 -3.1030107e-02 
7.8079557e-01 7.0103174e-01 -3.6490574e-02 
7.7197754e-01 6.9266766e-01 -1.9772684e-02 
7.7597344e-01 6.9642383e-01 -2.8513292e-02 
7.7593422e-01 6.9626099e-01 -3.2708343e-02 
7.6865393e-01 6.8923825e-01 -2.2856837e-02 
7.7133763e-01 6.9168252e-01 -3.1441670e-02 
7.6795965e-01 6.8867797e-01 -1.8170100e-02 
7.6721084e-01 6.8752301e-01 -3.2063223e-02 
7.6865876e-01 6.8922788e-01 -2.3530319e-02 
7.6522595e-01 6.8567741e-01 -2.7146624e-02 
7.6523769e-01 6.8591839e-01 -1.9089159e-02 
7.6322180e-01 6.8356198e-01 -3.0771162e-02 
7.7126151e-01 6.9146299e-01 -3.6183007e-02 
7.6208490e-01 6.8265861e-01 -2.2556016e-02 
7.6316243e-01 6.8383390e-01 -1.9361505e-02 
7.6658964e-01 6.8688869e-01 -3.2377012e-02 
7.6558417e-01 6.8598342e-01 -2.8854877e-02 
7.6236725e-01 6.8268782e-01 -3.1140340e-02 
7.5863713e-01 6.7907637e-01 -2.6904544e-02 
7.5864619e-01 6.7931825e-01 -1.8766813e-02 
7.5906199e-01 6.7976475e-01 -1.7719004e-02 
7.5838578e-01 6.7867696e-01 -3.1796854e-02 
7.5974435e-01 6.8028176e-01 -2.3601005e-02 
7.5547385e-01 6.7603749e-01 -2.2250973e-02 
7.5431347e-01 6.7463344e-01 -3.0503208e-02 
7.5412619e-01 6.7466432e-01 -2.2983903e-02 
7.6174885e-01 6.8192542e-01 -3.5870194e-02 
7.5416487e-01 6.7482305e-01 -1.8944832e-02 
7.5735754e-01 6.7763770e-01 -3.1912290e-02 
7.5200647e-01 6.7243558e-01 -2.6652655e-02 
7.5201422e-01 6.7267632e-01 -1.8440584e-02 
7.5332218e-01 6.7362434e-01 -3.0847868e-02 
7.5613135e-01 6.7649961e-01 -2.8835205e-02 
7.4997747e-01 6.7067063e-01 -1.7264677e-02 
7.4882418e-01 6.6937941e-01 -2.1939643e-02 
7.4936986e-01 6.6964537e-01 -3.1522106e-02 
7.5051570e-01 6.7103922e-01 -2.3309974e-02 
7.4533302e-01 6.6575426e-01 -2.6404640e-02 
7.4534684e-01 6.6600370e-01 -1.8116124e-02 
7.4520332e-01 6.6551405e-01 -3.0223811e-02 
7.5225198e-01 6.7240727e-01 -3.5555590e-02 
7.4497801e-01 6.6562915e-01 -1.8523566e-02 
7.4807245e-01 6.6833693e-01 -3.1576537e-02 
7.4213254e-01 6.6268522e-01 -2.1632990e-02 
7.4415070e-01 6.6444242e-01 -3.0541055e-02 
7.4686342e-01 6.6720575e-01 -2.8934853e-02 
7.4048650e-01 6.6095555e-01 -2.4561431e-02 
7.4070054e-01 6.6139245e-01 -1.6798312e-02 
7.4015546e-01 6.6042298e-01 -3.1235088e-02 
7.3862058e-01 6.5904248e-01 -2.6155068e-02 
7.4098349e-01 6.6149402e-01 -2.3194708e-02 
7.3779660e-01 6.5846395e-01 -1.7412184e-02 
7.3589796e-01 6.5620375e-01 -2.9937746e-02 
7.3539692e-01 6.5595293e-01 -2.1322003e-02 
7.4278498e-01 6.6292995e-01 -3.5235897e-02 
7.3560548e-01 6.5624398e-01 -1.8584017e-02 
7.3848379e-01 6.5874767e-01 -3.1128457e-02 
7.3516893e-01 6.5545374e-01 -3.0295722e-02 
7.3789197e-01 6.5820485e-01 -2.9489411e-02 
7.3188722e-01 6.5231228e-01 -2.5873264e-02 
7.3190051e-01 6.5256280e-01 -1.7471762e-02 
7.3122734e-01 6.5192312e-01 -1.6327579e-02 
7.3078382e-01 6.5105247e-01 -3.0936204e-02 
7.2866899e-01 6.4922863e-01 -2.1014256e-02 
7.2962558e-01 6.5013468e-01 -2.2878969e-02 
7.2646362e-01 6.4677483e-01 -2.9643992e-02 
7.3335278e-01 6.5349692e-01 -3.4909878e-02 
7.2518229e-01 6.4561027e-01 -2.5572896e-02 
7.2519958e-01 6.4586502e-01 -1.7168935e-02 
7.2615129e-01 6.4681202e-01 -1.7592793e-02 
7.2847277e-01 6.4878732e-01 -2.9173736e-02 
7.2699362e-01 6.4725989e-01 -3.0776015e-02 
7.2411895e-01 6.4441317e-01 -2.9905051e-02 
7.2198695e-01 6.4255148e-01 -2.0711731e-02 
7.2179836e-01 6.4250386e-01 -1.5855566e-02 
7.2143465e-01 6.4170974e-01 -3.0646272e-02 
7.2089142e-01 6.4145958e-01 -2.0847317e-02 
7.1852767e-01 6.3896447e-01 -2.5270585e-02 
7.1814328e-01 6.3882661e-01 -1.6467618e-02 
7.1718568e-01 6.3750368e-01 -2.9351750e-02 
7.2394294e-01 6.4409405e-01 -3.4583509e-02 
7.1679413e-01 6.3747221e-01 -1.7081793e-02 
7.1535146e-01 6.3592690e-01 -2.0407312e-02 
7.1623629e-01 6.3653570e-01 -2.9695284e-02 
7.1835226e-01 6.3875079e-01 -2.6446898e-02 
7.1904480e-01 6.3929892e-01 -3.1299148e-02 
7.1541196e-01 6.3571346e-01 -2.9639043e-02 
7.1251047e-01 6.3323331e-01 -1.5400076e-02 
7.1191424e-01 6.3236421e-01 -2.4967752e-02 
7.1193415e-01 6.3261968e-01 -1.6573461e-02 
7.1224058e-01 6.3252318e-01 -3.0352727e-02 
7.1161520e-01 6.3220578e-01 -2.0246729e-02 
7.0876461e-01 6.2935591e-01 -2.0109015e-02 
7.0806211e-01 6.2839282e-01 -2.9054362e-02 
7.1456099e-01 6.3472593e-01 -3.4266770e-02 
7.0758259e-01 6.2828332e-01 -1.6585225e-02 
7.0608222e-01 6.2679762e-01 -1.5816761e-02 
7.0535719e-01 6.2582374e-01 -2.4663880e-02 
7.0712876e-01 6.2743920e-01 -2.9413138e-02 
7.0967674e-01 6.2994391e-01 -3.0981908e-02 
7.0969981e-01 6.3003856e-01 -2.8539868e-02 
7.0336717e-01 6.2411278e-01 -1.4954062e-02 
7.0631802e-01 6.2678766e-01 -2.4221452e-02 
7.0319766e-01 6.2349910e-01 -3.0058445e-02 
7.0223123e-01 6.2283689e-01 -1.9810619e-02 
7.0475024e-01 6.2506771e-01 -2.9262086e-02 
7.0248544e-01 6.2310493e-01 -1.9662859e-02 
6.9884443e-01 6.1932623e-01 -2.4365004e-02 
6.9908673e-01 6.1944127e-01 -2.8762318e-02 
7.0519173e-01 6.2537026e-01 -3.3930875e-02 
6.9851410e-01 6.1924475e-01 -1.6101439e-02 
6.9762993e-01 6.1837196e-01 -1.5335040e-02 
6.9817281e-01 6.1850703e-01 -2.9133281e-02 
6.9573593e-01 6.1636639e-01 -1.9518211e-02 
7.0032638e-01 6.2060660e-01 -3.0662009e-02 
7.0034635e-01 6.2069905e-01 -2.8222423e-02 
6.9436347e-01 6.1514330e-01 -1.4517326e-02 
6.9430441e-01 6.1463398e-01 -2.9764624e-02 
6.9237554e-01 6.1288506e-01 -2.4061957e-02 
6.9239819e-01 6.1314070e-01 -1.5705407e-02 
6.9547719e-01 6.1600047e-01 -2.3128470e-02 
6.9543105e-01 6.1577475e-01 -2.8920697e-02 
6.9349790e-01 6.1415547e-01 -1.9096093e-02 
6.9089484e-01 6.1154479e-01 -1.9278225e-02 
6.9026399e-01 6.1065078e-01 -2.8468190e-02 
6.8929362e-01 6.0994875e-01 -1.9229520e-02 
6.9585532e-01 6.1605364e-01 -3.3594918e-02 
6.8896508e-01 6.0975999e-01 -1.4409437e-02 
6.8958879e-01 6.1035579e-01 -1.5632300e-02 
6.8936825e-01 6.0973287e-01 -2.8854933e-02 
6.9101572e-01 6.1132771e-01 -3.0337239e-02 
6.9103193e-01 6.1141813e-01 -2.7903814e-02 
6.8596089e-01 6.0650259e-01 -2.3760814e-02 
6.8597603e-01 6.0674942e-01 -1.5425685e-02 
6.8560708e-01 6.0621727e-01 -2.1240076e-02 
6.8549711e-01 6.0631794e-01 -1.4097036e-02 
6.8559313e-01 6.0617059e-01 -2.2408908e-02 
6.8556666e-01 6.0592920e-01 -2.9466435e-02 
6.8618929e-01 6.0675490e-01 -2.2828542e-02 
6.8615055e-01 6.0653353e-01 -2.8576836e-02 
6.8465632e-01 6.0535830e-01 -1.8552402e-02 
6.8290246e-01 6.0359055e-01 -1.8937247e-02 
6.8257248e-01 6.0340047e-01 -1.4134097e-02 
6.8158895e-01 6.0201573e-01 -2.8164241e-02 
6.8027598e-01 6.0107100e-01 -1.5487917e-02 
6.8079650e-01 6.0161293e-01 -1.5171920e-02 
6.8655831e-01 6.0679388e-01 -3.3255380e-02 
6.8006921e-01 6.0077167e-01 -1.8842924e-02 
6.7959535e-01 6.0016829e-01 -2.3459066e-02 
6.8071789e-01 6.0112411e-01 -2.8585291e-02 
6.8174392e-01 6.0210234e-01 -3.0010486e-02 
6.8175697e-01 6.0219061e-01 -2.7583223e-02 
6.7656368e-01 5.9728771e-01 -1.8657057e-02 
6.7677563e-01 5.9764814e-01 -1.3684162e-02 
6.7696339e-01 5.9737366e-01 -2.9168509e-02 
6.7594934e-01 5.9670722e-01 -1.8004928e-02 
6.7693979e-01 5.9755033e-01 -2.2537844e-02 
6.7690706e-01 5.9733862e-01 -2.8239895e-02 
6.7328358e-01 5.9389502e-01 -2.3164820e-02 
6.7349815e-01 5.9423339e-01 -1.8913448e-02 
6.7329746e-01 5.9414613e-01 -1.4881050e-02 
6.7305642e-01 5.9352940e-01 -2.7871467e-02 
6.7214441e-01 5.9301251e-01 -1.4725334e-02 
6.7730302e-01 5.9758639e-01 -3.2910965e-02 
6.7220563e-01 5.9265816e-01 -2.8306453e-02 
6.7027193e-01 5.9103787e-01 -1.8372361e-02 
6.6994494e-01 5.9085041e-01 -1.3574706e-02 
6.6841024e-01 5.8907402e-01 -2.2137703e-02 
6.6851491e-01 5.8897352e-01 -2.8872188e-02 
6.6818410e-01 5.8911228e-01 -1.3283316e-02 
6.7251408e-01 5.9292328e-01 -2.9680096e-02 
6.7252421e-01 5.9300870e-01 -2.7258588e-02 
6.6747516e-01 5.8824939e-01 -1.8627193e-02 
6.6728717e-01 5.8799106e-01 -2.1151736e-02 
6.6701293e-01 5.8766949e-01 -2.2869648e-02 
6.6703004e-01 5.8792394e-01 -1.4609852e-02 
6.6737390e-01 5.8819479e-01 -1.7481014e-02 
6.6772473e-01 5.8839577e-01 -2.2235632e-02 
6.6769743e-01 5.8818865e-01 -2.7895762e-02 
6.6466939e-01 5.8519769e-01 -2.7573679e-02 
6.6402632e-01 5.8484155e-01 -1.8094890e-02 
6.6370285e-01 5.8465743e-01 -1.3305886e-02 
6.6363484e-01 5.8457077e-01 -1.4294214e-02 
6.6383034e-01 5.8433700e-01 -2.8041663e-02 
6.6808552e-01 5.8842432e-01 -3.2562774e-02 
6.6079134e-01 5.8149749e-01 -2.2577081e-02 
6.6081375e-01 5.8175570e-01 -1.4342709e-02 
6.6023815e-01 5.8100772e-01 -2.0386009e-02 
6.6020364e-01 5.8072340e-01 -2.8577099e-02 
6.5972626e-01 5.8072215e-01 -1.2882850e-02 
6.6331643e-01 5.8378649e-01 -2.9346259e-02 
6.6332448e-01 5.8386987e-01 -2.6931491e-02 
6.5782815e-01 5.7869321e-01 -1.7826762e-02 