# vtk DataFile Version 4.0
vtk output
ASCII
DATASET UNSTRUCTURED_GRID
POINTS 6166 float
-4.3633327e-01 9.6409470e-01 4.4200001e+01 
-4.3633261e-01 9.6409082e-01 4.4079685e+01 
-3.2145375e-01 9.1276109e-01 4.4200001e+01 
-3.8566181e-01 8.4097892e-01 4.4200001e+01 
-3.3069235e-01 9.1895354e-01 4.4019413e+01 
-3.8473952e-01 8.3919770e-01 4.4024357e+01 
-4.3633196e-01 9.6408689e-01 4.3958702e+01 
-2.1293370e-01 8.4677851e-01 4.4200001e+01 
-2.9042658e-01 7.3813015e-01 4.4200001e+01 
-2.1019450e-01 8.4669626e-01 4.4077393e+01 
-2.8909999e-01 7.3605996e-01 4.4073399e+01 
-3.2963324e-01 9.1929907e-01 4.3898094e+01 
-3.8679782e-01 8.4179753e-01 4.3889645e+01 
-2.0740938e-01 8.4661204e-01 4.3952713e+01 
-4.3633130e-01 9.6408290e-01 4.3837040e+01 
-1.1677200e-01 7.7521002e-01 4.4200001e+01 
-2.8775173e-01 7.3395580e-01 4.3944717e+01 
-1.9365783e-01 6.6203654e-01 4.4200001e+01 
-1.1309985e-01 7.7540898e-01 4.4012005e+01 
-1.9181472e-01 6.5888047e-01 4.4006447e+01 
-3.2856464e-01 9.1964108e-01 4.3776085e+01 
-3.8823184e-01 8.4352189e-01 4.3765770e+01 
-2.0457739e-01 8.4652513e-01 4.3825886e+01 
-2.8638119e-01 7.3181647e-01 4.3813885e+01 
-4.3633065e-01 9.6407896e-01 4.3714680e+01 
-1.0911675e-01 7.7426714e-01 4.3886200e+01 
-2.1001574e-02 6.8269837e-01 4.4200001e+01 
-1.8902887e-01 6.5566909e-01 4.3876659e+01 
-7.8887597e-02 5.9015810e-01 4.4200001e+01 
-3.2748649e-01 9.1997939e-01 4.3653378e+01 
-3.9889076e-01 8.5876143e-01 4.3651733e+01 
-2.0169757e-01 8.4643483e-01 4.3696846e+01 
-7.2496021e-03 6.7325598e-01 4.3947758e+01 
-1.0504345e-01 7.7307969e-01 4.3758209e+01 
-2.8498772e-01 7.2964084e-01 4.3680840e+01 
-6.3224643e-02 5.7783771e-01 4.3940754e+01 
3.5808440e-02 6.2679136e-01 4.4056572e+01 
-1.8616955e-01 6.5238589e-01 4.3744686e+01 
-4.3632996e-01 9.6407503e-01 4.3591618e+01 
-9.8678423e-03 5.4892725e-01 4.4055367e+01 
-1.8652271e-02 6.8798620e-01 4.3834026e+01 
-7.9845116e-02 5.8636194e-01 4.3823372e+01 
8.7777540e-02 5.7885915e-01 4.4200001e+01 
5.3622175e-02 5.1732427e-01 4.4200001e+01 
-3.2639861e-01 9.2031354e-01 4.3529953e+01 
-3.9894739e-01 8.5844576e-01 4.3528313e+01 
-1.9876897e-01 8.4634024e-01 4.3565521e+01 
-1.0087753e-01 7.7184403e-01 4.3627972e+01 
-2.8357074e-01 7.2742778e-01 4.3545506e+01 
-1.8323407e-01 6.4902818e-01 4.3610458e+01 
-4.3632931e-01 9.6407109e-01 4.3467831e+01 
3.1033519e-03 6.6751039e-01 4.3691772e+01 
-5.3600248e-02 5.6906003e-01 4.3676846e+01 
1.2436585e-01 5.5082864e-01 4.3886215e+01 
1.7079005e-01 5.1095647e-01 4.4054855e+01 
1.4951277e-01 4.6697062e-01 4.4053665e+01 
1.0028158e-01 4.8915190e-01 4.3877911e+01 
-4.0513036e-01 8.6722642e-01 4.3405304e+01 
-3.2530096e-01 9.2064321e-01 4.3405800e+01 
-9.6616447e-02 7.7055699e-01 4.3495411e+01 
-8.4563000e-03 6.8258613e-01 4.3574005e+01 
-1.9579062e-01 8.4624058e-01 4.3431831e+01 
2.1753120e-01 4.7335833e-01 4.4200001e+01 
2.0360756e-01 4.4289169e-01 4.4200001e+01 
-1.8021962e-01 6.4559317e-01 4.3473904e+01 
-7.0636064e-02 5.7773441e-01 4.3555408e+01 
-2.8212959e-01 7.2517604e-01 4.3407806e+01 
-4.3632865e-01 9.6406716e-01 4.3343307e+01 
1.3810426e-01 5.4143524e-01 4.3628246e+01 
-3.2419339e-01 9.2096806e-01 4.3280907e+01 
-3.9903235e-01 8.5775709e-01 4.3279266e+01 
-9.2257597e-02 7.6921552e-01 4.3360443e+01 
1.1508528e-01 4.7804743e-01 4.3612068e+01 
-1.9276154e-01 8.4613472e-01 4.3295704e+01 
1.4013666e-02 6.6131532e-01 4.3426643e+01 
-1.7712323e-01 6.4207786e-01 4.3334946e+01 
-2.8066361e-01 7.2288430e-01 4.3267666e+01 
-4.3382257e-02 5.5983055e-01 4.3403778e+01 
-4.3632799e-01 9.6406323e-01 4.3218033e+01 
3.7877345e-01 3.8273901e-01 4.4200001e+01 
3.9076596e-01 3.7443376e-01 4.3993755e+01 
-3.2307580e-01 9.2128778e-01 4.3155251e+01 
-3.9906058e-01 8.5738426e-01 4.3153610e+01 
-8.7798268e-02 7.6781619e-01 4.3222996e+01 
1.9689407e-02 6.5803534e-01 4.3290459e+01 
-6.0862999e-02 5.6866169e-01 4.3278019e+01 
-1.8968078e-01 8.4602165e-01 4.3157055e+01 
-1.7394182e-01 6.3847917e-01 4.3193501e+01 
-4.3632734e-01 9.6405929e-01 4.3091995e+01 
4.0275589e-01 3.6612594e-01 4.3787510e+01 
1.2304078e-01 5.5709994e-01 4.3330139e+01 
-2.7917209e-01 7.2055119e-01 4.3125000e+01 
2.5336364e-01 4.4907436e-01 4.3468094e+01 
2.3670304e-01 4.1684708e-01 4.3469433e+01 
1.3086085e-01 4.6634668e-01 4.3336948e+01 
-3.8351217e-01 8.3473074e-01 4.3036392e+01 
-3.2194808e-01 9.2160189e-01 4.3028820e+01 
2.5518833e-02 6.5462554e-01 4.3151749e+01 
-8.3235659e-02 7.6635528e-01 4.3082981e+01 
4.1474071e-01 3.5781288e-01 4.3581264e+01 
-1.8654740e-01 8.4590012e-01 4.3015797e+01 
-3.2522827e-02 5.5011308e-01 4.3120937e+01 
-1.7067213e-01 6.3479382e-01 4.3049488e+01 
-4.3632668e-01 9.6405542e-01 4.2965172e+01 
-2.7765438e-01 7.1817529e-01 4.2979721e+01 
2.6620242e-01 4.4011977e-01 4.3261948e+01 
1.3584816e-02 6.7044950e-01 4.3025066e+01 
-3.2081014e-01 9.2191011e-01 4.2901604e+01 
-3.8160574e-01 8.3169121e-01 4.2902863e+01 
-7.8566879e-02 7.6482886e-01 4.2940315e+01 
-5.0480481e-02 5.5910730e-01 4.2990566e+01 
4.2671782e-01 3.4949207e-01 4.3375019e+01 
1.6821145e-01 5.2049083e-01 4.3083881e+01 
-1.8336046e-01 8.4576881e-01 4.2871841e+01 
-4.3632606e-01 9.6405160e-01 4.2837555e+01 
-1.6731077e-01 6.3101834e-01 4.2902817e+01 
1.4768846e-01 4.5400122e-01 4.3051926e+01 
-2.7610970e-01 7.1575516e-01 4.2831745e+01 
-3.1966189e-01 9.2221189e-01 4.2773579e+01 
-3.8560396e-01 8.3684862e-01 4.2767078e+01 
3.7660085e-02 6.4738947e-01 4.2866421e+01 
-7.3788933e-02 7.6323271e-01 4.2794899e+01 
4.3868470e-01 3.4116083e-01 4.3168777e+01 
-4.3632543e-01 9.6404779e-01 4.2709122e+01 
-2.0968946e-02 5.3986710e-01 4.2827656e+01 
-1.8011902e-01 8.4562629e-01 4.2725094e+01 
-1.6385415e-01 6.2714905e-01 4.2753403e+01 
-2.7453732e-01 7.1328926e-01 4.2680973e+01 
-3.1850323e-01 9.2250693e-01 4.2644733e+01 
-3.9907700e-01 8.5570478e-01 4.2643101e+01 
2.5504474e-02 6.6361672e-01 4.2734810e+01 
1.8471870e-01 5.0880390e-01 4.2796177e+01 
-6.8898737e-02 7.6156229e-01 4.2646645e+01 
-3.9438177e-02 5.4903054e-01 4.2692345e+01 
-4.3632481e-01 9.6404403e-01 4.2579861e+01 
4.5063871e-01 3.3281663e-01 4.2962532e+01 
1.6565691e-01 4.4095638e-01 4.2756321e+01 
-1.7682223e-01 8.4547096e-01 4.2575459e+01 
-1.6029853e-01 6.2318206e-01 4.2601143e+01 
-4.0415615e-01 8.6278629e-01 4.2516582e+01 
-3.1733403e-01 9.2279470e-01 4.2515053e+01 
-2.7293649e-01 7.1077597e-01 4.2527313e+01 
5.0482783e-02 6.3954860e-01 4.2569923e+01 
-4.3632418e-01 9.6404034e-01 4.2449757e+01 
-6.3893095e-02 7.5981271e-01 4.2495445e+01 
-8.6617703e-03 5.2904755e-01 4.2523201e+01 
-1.7346917e-01 8.4530097e-01 4.2422829e+01 
-1.5663996e-01 6.1911333e-01 4.2445942e+01 
3.0435190e-01 4.1341871e-01 4.2643494e+01 
4.6257737e-01 3.2445681e-01 4.2756287e+01 
-3.1615424e-01 9.2307472e-01 4.2384518e+01 
-3.9902648e-01 8.5475212e-01 4.2382885e+01 
-2.7130640e-01 7.0821363e-01 4.2370659e+01 
3.8079392e-02 6.5619886e-01 4.2433029e+01 
2.0230262e-01 4.9620378e-01 4.2497147e+01 
-4.3632355e-01 9.6403670e-01 4.2318787e+01 
-5.8768708e-02 7.5797862e-01 4.2341198e+01 
-2.7680276e-02 5.3838593e-01 4.2382599e+01 
1.8486446e-01 4.2715022e-01 4.2449394e+01 
-3.8436696e-01 8.3356136e-01 4.2264896e+01 
8.9545198e-02 5.3233254e-01 4.2382050e+01 
-3.3225983e-01 9.3122375e-01 4.2255634e+01 
-1.7005907e-01 8.4511453e-01 4.2267101e+01 
-1.5287429e-01 6.1493850e-01 4.2287693e+01 
4.7449806e-01 3.1607881e-01 4.2550037e+01 
-2.6964626e-01 7.0560038e-01 4.2210907e+01 
-4.3632296e-01 9.6403313e-01 4.2186939e+01 
6.4036883e-02 6.3103610e-01 4.2261456e+01 
-5.3522192e-02 7.5605446e-01 4.2183796e+01 
-3.7873057e-01 8.2541841e-01 4.2124020e+01 
-3.1376252e-01 9.2360973e-01 4.2120819e+01 
4.4639236e-03 5.1760370e-01 4.2206776e+01 
-1.6659111e-01 8.4490943e-01 4.2108162e+01 
-1.4899719e-01 6.1065292e-01 4.2126286e+01 
-4.3632239e-01 9.6402961e-01 4.2054195e+01 
4.8639825e-01 3.0768004e-01 4.2343792e+01 
-2.6795524e-01 7.0293444e-01 4.2047943e+01 
2.4746621e-01 4.6040925e-01 4.2191032e+01 
7.1105182e-02 6.2650448e-01 4.2102463e+01 
-3.1255043e-01 9.2386365e-01 4.1987617e+01 
-4.8150036e-02 7.5403398e-01 4.2023121e+01 
-1.5144684e-02 5.2712250e-01 4.2060505e+01 
-3.7995064e-01 8.2661813e-01 4.1980038e+01 
2.0541981e-01 4.1251117e-01 4.2130333e+01 
-1.6306458e-01 8.4468329e-01 4.1945896e+01 
-4.3632182e-01 9.6402621e-01 4.1920536e+01 
-1.4500406e-01 6.0625184e-01 4.1961609e+01 
1.3375351e-01 5.6370503e-01 4.1969833e+01 
-2.6623246e-01 7.0021385e-01 4.1881653e+01 
-3.1132740e-01 9.2410773e-01 4.1853493e+01 
-3.9880505e-01 8.5261923e-01 4.1851868e+01 
4.9827534e-01 2.9925787e-01 4.2137547e+01 
3.4194937e-01 3.8685825e-01 4.2025021e+01 
-4.2648647e-02 7.5191063e-01 4.1859051e+01 
-2.5401810e-01 7.9503769e-01 4.1808533e+01 
1.8480448e-02 5.0547802e-01 4.1877510e+01 
-4.3632126e-01 9.6402287e-01 4.1785946e+01 
-1.5947884e-01 8.4443361e-01 4.1780174e+01 
-1.4089009e-01 6.0172999e-01 4.1793541e+01 
-3.1009343e-01 9.2434150e-01 4.1718426e+01 
-4.0306881e-01 8.5845691e-01 4.1716179e+01 
8.5861288e-02 6.1683756e-01 4.1774368e+01 
-2.6447710e-01 6.9743657e-01 4.1711910e+01 
3.0427080e-01 4.1638452e-01 4.1839512e+01 
2.6751360e-01 3.7833902e-01 4.1830902e+01 
5.1012677e-01 2.9080975e-01 4.1931297e+01 
-3.7014309e-02 7.4967718e-01 4.1691463e+01 
-4.3632072e-01 9.6401966e-01 4.1650398e+01 
2.5847588e-02 4.9913955e-01 4.1707767e+01 
-1.5583332e-01 8.4415752e-01 4.1610870e+01 
-3.8322043e-01 8.2981020e-01 4.1595791e+01 
-3.0884841e-01 9.2456430e-01 4.1582397e+01 
-1.3665022e-01 5.9708190e-01 4.1621960e+01 
9.3565010e-02 6.1167872e-01 4.1605015e+01 
-2.6268822e-01 6.9460052e-01 4.1538593e+01 
-4.3632022e-01 9.6401656e-01 4.1513885e+01 
-3.1243213e-02 7.4732590e-01 4.1520226e+01 
2.7603787e-01 3.7115356e-01 4.1624012e+01 
2.8505871e-01 4.3281260e-01 4.1611507e+01 
5.2195001e-01 2.8233302e-01 4.1725052e+01 
3.3468332e-02 4.9260557e-01 4.1534447e+01 
-3.9853087e-01 8.5081697e-01 4.1443768e+01 
-3.2560509e-01 9.3245691e-01 4.1443577e+01 
-1.5212752e-01 8.4385180e-01 4.1437847e+01 
-1.3227913e-01 5.9230179e-01 4.1446728e+01 
-4.3631971e-01 9.6401358e-01 4.1376381e+01 
[...]
POINT_DATA 6166
FIELD FieldData 5
DISPLACEMENT 3 6166  float
1.3814331e+00 1.2602280e+00 -6.5692194e-02 
1.3733171e+00 1.2520688e+00 -6.5140314e-02 
1.3812853e+00 1.2600751e+00 -6.9959573e-02 
1.3815913e+00 1.2603922e+00 -6.0760386e-02 
1.3691111e+00 1.2478362e+00 -6.8928368e-02 
1.3697450e+00 1.2484828e+00 -5.9896488e-02 
1.3651561e+00 1.2438643e+00 -6.4585336e-02 
1.3811846e+00 1.2599710e+00 -7.2804503e-02 
1.3816029e+00 1.2604043e+00 -6.0208991e-02 
1.3729081e+00 1.2516501e+00 -7.2421536e-02 
1.3730644e+00 1.2518204e+00 -5.9577610e-02 
1.3609241e+00 1.2396055e+00 -6.8466894e-02 
1.3606570e+00 1.2393461e+00 -5.9316382e-02 
1.3644913e+00 1.2431884e+00 -7.2031952e-02 
1.3569493e+00 1.2356137e+00 -6.4027205e-02 
1.3811245e+00 1.2599089e+00 -7.4437015e-02 
1.3643856e+00 1.2430954e+00 -5.8935918e-02 
1.3815514e+00 1.2603513e+00 -6.1575528e-02 
1.3684343e+00 1.2471508e+00 -7.3836230e-02 
1.3684980e+00 1.2472284e+00 -6.0598411e-02 
1.3526909e+00 1.2313285e+00 -6.8002574e-02 
1.3523005e+00 1.2309452e+00 -5.8768768e-02 
1.3559300e+00 1.2345812e+00 -7.1635425e-02 
1.3555621e+00 1.2342250e+00 -5.8283672e-02 
1.3486959e+00 1.2273165e+00 -6.3465893e-02 
1.3599414e+00 1.2386123e+00 -7.3450506e-02 
1.3811117e+00 1.2598960e+00 -7.4622735e-02 
1.3597436e+00 1.2384274e+00 -5.9973583e-02 
1.3814495e+00 1.2602460e+00 -6.4442076e-02 
1.3444109e+00 1.2230042e+00 -6.7535304e-02 
1.3445990e+00 1.2232025e+00 -5.8560722e-02 
1.3472196e+00 1.2258242e+00 -7.1231626e-02 
1.3640862e+00 1.2427791e+00 -7.3753357e-02 
1.3513014e+00 1.2299262e+00 -7.3057704e-02 
1.3465894e+00 1.2252048e+00 -5.7620630e-02 
1.3639534e+00 1.2426565e+00 -6.3474469e-02 
1.3714315e+00 1.2501640e+00 -7.4005395e-02 
1.3508421e+00 1.2294787e+00 -5.9339110e-02 
1.3403952e+00 1.2189717e+00 -6.2901407e-02 
1.3716271e+00 1.2503694e+00 -6.5638073e-02 
1.3564078e+00 1.2350595e+00 -7.3461704e-02 
1.3560539e+00 1.2347156e+00 -6.2393501e-02 
1.3810946e+00 1.2598786e+00 -7.4917629e-02 
1.3813093e+00 1.2601011e+00 -6.8440326e-02 
1.3360831e+00 1.2146324e+00 -6.7065142e-02 
1.3362751e+00 1.2148346e+00 -5.7970066e-02 
1.3383553e+00 1.2169129e+00 -7.0820220e-02 
1.3425100e+00 1.2210877e+00 -7.2657406e-02 
1.3374629e+00 1.2160300e+00 -5.6946356e-02 
1.3417890e+00 1.2203778e+00 -5.8694474e-02 
1.3320464e+00 1.2105790e+00 -6.2333409e-02 
1.3468080e+00 1.2254086e+00 -7.2888047e-02 
1.3461486e+00 1.2247571e+00 -6.2318776e-02 
1.3599064e+00 1.2385765e+00 -7.4045643e-02 
1.3712652e+00 1.2499956e+00 -7.5246125e-02 
1.3713312e+00 1.2500665e+00 -7.0822217e-02 
1.3595382e+00 1.2382126e+00 -6.8200052e-02 
1.3279740e+00 1.2064897e+00 -5.7585150e-02 
1.3277067e+00 1.2062118e+00 -6.6591650e-02 
1.3335623e+00 1.2120924e+00 -7.2249256e-02 
1.3388575e+00 1.2174155e+00 -7.2590545e-02 
1.3293325e+00 1.2078421e+00 -7.0400849e-02 
1.3810333e+00 1.2598155e+00 -7.6514445e-02 
1.3811327e+00 1.2599186e+00 -7.3508859e-02 
1.3325795e+00 1.2111198e+00 -5.8039904e-02 
1.3379773e+00 1.2165433e+00 -6.1201923e-02 
1.3281778e+00 1.2066962e+00 -5.6261044e-02 
1.3236489e+00 1.2021375e+00 -6.1762460e-02 
1.3424945e+00 1.2210715e+00 -7.3152252e-02 
1.3192813e+00 1.1977427e+00 -6.6115603e-02 
1.3194816e+00 1.1979533e+00 -5.6777690e-02 
1.3244535e+00 1.2029352e+00 -7.1832791e-02 
1.3415961e+00 1.2201749e+00 -6.7226939e-02 
1.3201462e+00 1.1986077e+00 -6.9972977e-02 
1.3289146e+00 1.2074199e+00 -7.1987659e-02 
1.3232089e+00 1.2017002e+00 -5.7375014e-02 
1.3187293e+00 1.1971982e+00 -5.5563588e-02 
1.3277278e+00 1.2062392e+00 -6.1131876e-02 
1.3152019e+00 1.1936466e+00 -6.1187923e-02 
1.3808671e+00 1.2596437e+00 -8.1244417e-02 
1.3669453e+00 1.2456467e+00 -8.0544241e-02 
1.3108060e+00 1.1892231e+00 -6.5636270e-02 
1.3110108e+00 1.1894383e+00 -5.6175783e-02 
1.3151785e+00 1.1936119e+00 -7.1407579e-02 
1.3197253e+00 1.1981820e+00 -7.1523003e-02 
1.3192679e+00 1.1977358e+00 -5.9977118e-02 
1.3107910e+00 1.1892041e+00 -6.9536053e-02 
1.3136725e+00 1.1921142e+00 -5.6699567e-02 
1.3067043e+00 1.1851054e+00 -6.0610067e-02 
1.3530234e+00 1.2316501e+00 -7.9843640e-02 
1.3223882e+00 1.2008585e+00 -7.1830831e-02 
1.3091122e+00 1.1875317e+00 -5.4854453e-02 
1.3316340e+00 1.2101518e+00 -7.3927984e-02 
1.3318337e+00 1.2103561e+00 -7.0625186e-02 
1.3230299e+00 1.2015104e+00 -6.6236727e-02 
1.3031235e+00 1.1815113e+00 -5.5153146e-02 
1.3022802e+00 1.1806536e+00 -6.5153055e-02 
1.3103672e+00 1.1887755e+00 -7.1048684e-02 
1.3057320e+00 1.1841166e+00 -7.0973396e-02 
1.3391025e+00 1.2176548e+00 -7.9142153e-02 
1.3012620e+00 1.1796262e+00 -6.9090866e-02 
1.3086525e+00 1.1870656e+00 -5.9912760e-02 
1.3039641e+00 1.1823567e+00 -5.6012522e-02 
1.2981561e+00 1.1765138e+00 -6.0028583e-02 
1.2993212e+00 1.1776907e+00 -5.4133017e-02 
1.3177223e+00 1.1961660e+00 -7.3240168e-02 
1.3018200e+00 1.1801839e+00 -7.0735566e-02 
1.2937026e+00 1.1720334e+00 -6.4666942e-02 
1.2941258e+00 1.1724687e+00 -5.4465443e-02 
1.2961086e+00 1.1744443e+00 -7.0529580e-02 
1.2998857e+00 1.1782548e+00 -5.8717012e-02 
1.3251839e+00 1.2036612e+00 -7.8438327e-02 
1.3057622e+00 1.1841457e+00 -7.1266145e-02 
1.2915534e+00 1.1698687e+00 -6.8635680e-02 
1.2895555e+00 1.1678705e+00 -5.9443306e-02 
1.2940795e+00 1.1724223e+00 -5.5315249e-02 
1.3038013e+00 1.1821824e+00 -6.5231450e-02 
1.2893504e+00 1.1676708e+00 -5.3399138e-02 
1.2850727e+00 1.1633611e+00 -6.4177185e-02 
1.2849743e+00 1.1632715e+00 -5.3926174e-02 
1.2911237e+00 1.1694343e+00 -7.0068076e-02 
1.2863029e+00 1.1645895e+00 -7.0075676e-02 
1.3112661e+00 1.1896697e+00 -7.7734023e-02 
1.2809025e+00 1.1591759e+00 -5.8855187e-02 
1.2888812e+00 1.1671951e+00 -5.8659188e-02 
1.2816596e+00 1.1599264e+00 -6.8170108e-02 
1.2840117e+00 1.1623057e+00 -5.4605551e-02 
1.2791953e+00 1.1574665e+00 -5.2653115e-02 
1.2763908e+00 1.1546371e+00 -6.3683517e-02 
1.2766128e+00 1.1548694e+00 -5.3730551e-02 
1.2822489e+00 1.1605147e+00 -6.9744207e-02 
1.2863598e+00 1.1646453e+00 -7.0269130e-02 
1.2763090e+00 1.1545469e+00 -6.9610544e-02 
1.2797875e+00 1.1580578e+00 -5.7419807e-02 
1.2721977e+00 1.1504296e+00 -5.8264405e-02 
1.2973541e+00 1.1756868e+00 -7.7028811e-02 
1.2838674e+00 1.1621479e+00 -6.4208865e-02 
1.2715753e+00 1.1497943e+00 -6.7693934e-02 
1.2737575e+00 1.1520021e+00 -5.3885970e-02 
1.2680889e+00 1.1463063e+00 -5.3292107e-02 
1.2676562e+00 1.1458627e+00 -6.3187756e-02 
1.2688503e+00 1.1470722e+00 -5.1893141e-02 
1.2711408e+00 1.1493535e+00 -6.9040716e-02 
1.2634393e+00 1.1416305e+00 -5.7669241e-02 
1.2661227e+00 1.1443127e+00 -6.9134295e-02 
1.2683717e+00 1.1465878e+00 -5.7372041e-02 
1.2612944e+00 1.1394658e+00 -6.7206703e-02 
1.2633111e+00 1.1415069e+00 -5.3152673e-02 
1.2760144e+00 1.1542479e+00 -7.1168989e-02 
1.2834487e+00 1.1617131e+00 -7.6322168e-02 
1.2588671e+00 1.1370324e+00 -6.2688358e-02 
1.2590979e+00 1.1372732e+00 -5.2487109e-02 
1.2583089e+00 1.1364830e+00 -5.1119395e-02 
1.2619184e+00 1.1400886e+00 -6.8705931e-02 
1.2662097e+00 1.1443989e+00 -6.9231994e-02 
1.2546265e+00 1.1327780e+00 -5.7071649e-02 
1.2557348e+00 1.1338776e+00 -6.8647526e-02 
1.2589314e+00 1.1371052e+00 -5.6086101e-02 
1.2631861e+00 1.1413695e+00 -6.3170113e-02 
1.2511740e+00 1.1293142e+00 -5.1507097e-02 
1.2586414e+00 1.1368033e+00 -6.3561007e-02 
1.2502164e+00 1.1283436e+00 -6.1564803e-02 
1.2508103e+00 1.1289346e+00 -6.6708006e-02 
1.2526627e+00 1.1308118e+00 -5.2409030e-02 
1.2695491e+00 1.1477449e+00 -7.5611532e-02 
1.2475647e+00 1.1256922e+00 -5.0333586e-02 
1.2457606e+00 1.1238738e+00 -5.6470539e-02 
1.2503695e+00 1.1284877e+00 -6.7964606e-02 
1.2451411e+00 1.1232367e+00 -6.8147741e-02 
1.2417064e+00 1.1198075e+00 -5.0697815e-02 
1.2411281e+00 1.1192154e+00 -6.1676558e-02 
1.2470740e+00 1.1251954e+00 -5.6048214e-02 
1.2401172e+00 1.1181954e+00 -6.6198662e-02 
1.2418079e+00 1.1199114e+00 -5.1650967e-02 
1.2368392e+00 1.1149149e+00 -5.5865046e-02 
1.2556571e+00 1.1337894e+00 -7.4899852e-02 
1.2366116e+00 1.1146936e+00 -4.9533207e-02 
1.2455882e+00 1.1236851e+00 -6.8452798e-02 
1.2396744e+00 1.1177450e+00 -6.7407236e-02 
1.2321746e+00 1.1102268e+00 -6.1165843e-02 
1.2343342e+00 1.1123841e+00 -6.7634113e-02 
1.2372640e+00 1.1153455e+00 -5.4713480e-02 
1.2320304e+00 1.1100930e+00 -5.0045680e-02 
1.2417064e+00 1.1197945e+00 -6.2113903e-02 
1.2292082e+00 1.1072414e+00 -6.5675348e-02 
1.2278600e+00 1.1059009e+00 -5.5255286e-02 
1.2307421e+00 1.1088020e+00 -5.0883200e-02 
1.2307562e+00 1.1087916e+00 -6.6771924e-02 
1.2254441e+00 1.1034836e+00 -4.8719987e-02 
1.2231652e+00 1.1011832e+00 -6.0649909e-02 
1.2234110e+00 1.1014397e+00 -4.9956508e-02 
1.2417798e+00 1.1198534e+00 -7.4186631e-02 
1.2343764e+00 1.1124240e+00 -6.9076836e-02 
1.2233096e+00 1.1013154e+00 -6.7106508e-02 
1.2203016e+00 1.0983137e+00 -5.5597167e-02 
1.2249410e+00 1.1029737e+00 -5.4688528e-02 
1.2188270e+00 1.0968361e+00 -5.4642949e-02 
1.2180790e+00 1.0960711e+00 -6.5134853e-02 
1.2194604e+00 1.0974782e+00 -5.0105918e-02 
1.2141007e+00 1.0920869e+00 -6.0130846e-02 
1.2143055e+00 1.0923039e+00 -4.9455412e-02 
1.2176284e+00 1.0956123e+00 -6.6242360e-02 
1.2140566e+00 1.0920572e+00 -4.7894537e-02 
1.2219356e+00 1.0999343e+00 -6.7694768e-02 
1.2215222e+00 1.0995275e+00 -6.2625170e-02 
1.2279081e+00 1.1059219e+00 -7.3467344e-02 
1.2120626e+00 1.0900270e+00 -6.6563666e-02 
1.2097384e+00 1.0877179e+00 -5.4030403e-02 
1.2135485e+00 1.0915418e+00 -5.3998303e-02 
1.2067237e+00 1.0846761e+00 -6.4581908e-02 
1.2062538e+00 1.0842272e+00 -4.8322916e-02 
1.2049843e+00 1.0829411e+00 -5.9606116e-02 
1.2079537e+00 1.0859351e+00 -4.9311332e-02 
1.2062707e+00 1.0842144e+00 -6.5641120e-02 
1.2024459e+00 1.0804096e+00 -4.7053646e-02 
1.2005996e+00 1.0785483e+00 -5.3414479e-02 
1.2005825e+00 1.0785103e+00 -6.6005841e-02 
1.2076420e+00 1.0855991e+00 -6.1779469e-02 
1.2066518e+00 1.0845966e+00 -6.6474192e-02 
1.2140554e+00 1.0920168e+00 -7.2745867e-02 
1.2019293e+00 1.0798866e+00 -5.3297076e-02 
1.1960698e+00 1.0740094e+00 -4.8029277e-02 
1.1957158e+00 1.0736427e+00 -5.8383930e-02 
1.1951321e+00 1.0730515e+00 -6.4016722e-02 
1.1962197e+00 1.0741676e+00 -4.8508115e-02 
1.1914005e+00 1.0693235e+00 -5.2792266e-02 
1.1963704e+00 1.0742848e+00 -6.4963065e-02 
1.1906012e+00 1.0685331e+00 -4.6200596e-02 
1.1888664e+00 1.0667609e+00 -6.5433122e-02 
1.1865822e+00 1.0644866e+00 -5.8551379e-02 
1.1868395e+00 1.0647579e+00 -4.7379181e-02 
1.1900780e+00 1.0680035e+00 -5.2587930e-02 
1.1944344e+00 1.0723518e+00 -6.1422527e-02 
1.2002239e+00 1.0781389e+00 -7.2022922e-02 
1.1833022e+00 1.0611898e+00 -6.3435927e-02 
1.1921527e+00 1.0700548e+00 -6.6078268e-02 
1.1821437e+00 1.0600467e+00 -5.2163672e-02 
1.1842493e+00 1.0621682e+00 -4.7692161e-02 
1.1841713e+00 1.0620548e+00 -6.4282067e-02 
1.1772927e+00 1.0551784e+00 -5.8015950e-02 
1.1775535e+00 1.0554564e+00 -4.6725877e-02 
1.1785175e+00 1.0564228e+00 -4.5331802e-02 
1.1769048e+00 1.0547707e+00 -6.4845093e-02 
1.1779871e+00 1.0558866e+00 -5.1869713e-02 
1.1728295e+00 1.0507171e+00 -5.1536113e-02 
1.1812140e+00 1.0591011e+00 -6.0204674e-02 
1.1864159e+00 1.0642911e+00 -7.1295485e-02 
1.1712217e+00 1.0490842e+00 -6.2839553e-02 
1.1720341e+00 1.0499307e+00 -4.6863087e-02 
1.1787508e+00 1.0566208e+00 -6.5483756e-02 
1.1679469e+00 1.0458152e+00 -5.7476196e-02 
1.1682127e+00 1.0460993e+00 -4.6070520e-02 
1.1714592e+00 1.0493164e+00 -6.3597396e-02 
1.1661848e+00 1.0440717e+00 -4.4448163e-02 
1.1634591e+00 1.0413308e+00 -5.0908018e-02 
1.1646883e+00 1.0425329e+00 -6.4240254e-02 
1.1656474e+00 1.0435265e+00 -5.1142287e-02 
1.1585463e+00 1.0364015e+00 -5.6934047e-02 
1.1588137e+00 1.0366850e+00 -4.5409176e-02 
1.1588823e+00 1.0367278e+00 -6.2228810e-02 
1.1726333e+00 1.0504755e+00 -7.0564136e-02 
1.1595665e+00 1.0374479e+00 -4.6021063e-02 
1.1656092e+00 1.0434686e+00 -5.8850851e-02 
1.1654571e+00 1.0433009e+00 -6.4914376e-02 
1.1540296e+00 1.0318905e+00 -5.0271250e-02 
1.1585389e+00 1.0363764e+00 -6.2896840e-02 
1.1535959e+00 1.0314716e+00 -4.3552205e-02 
1.1522115e+00 1.0300412e+00 -6.3615806e-02 
1.1549419e+00 1.0328069e+00 -5.1396340e-02 
1.1490810e+00 1.0269290e+00 -5.6387883e-02 
1.1493560e+00 1.0272237e+00 -4.4753633e-02 
1.1462789e+00 1.0241137e+00 -6.1597817e-02 
1.1588737e+00 1.0366894e+00 -6.9840081e-02 
1.1445420e+00 1.0224017e+00 -4.9641803e-02 
1.1468425e+00 1.0247147e+00 -4.5166109e-02 
1.1519673e+00 1.0297928e+00 -6.4161576e-02 
1.1506286e+00 1.0284662e+00 -5.9045207e-02 
1.1455709e+00 1.0233952e+00 -6.2195472e-02 
1.1395630e+00 1.0174092e+00 -5.5843484e-02 
1.1398367e+00 1.0177051e+00 -4.4092182e-02 
1.1407491e+00 1.0186194e+00 -4.2636763e-02 
1.1394674e+00 1.0172896e+00 -6.2972270e-02 
1.1420873e+00 1.0199431e+00 -5.1240321e-02 
1.1349931e+00 1.0128520e+00 -4.9005531e-02 
1.1334096e+00 1.0112389e+00 -6.0948960e-02 
1.1333486e+00 1.0112035e+00 -5.0078269e-02 
1.1451435e+00 1.0229462e+00 -6.9110692e-02 
1.1338531e+00 1.0117247e+00 -4.4298336e-02 
1.1386222e+00 1.0164373e+00 -6.3215546e-02 
1.1299843e+00 1.0078316e+00 -5.5284575e-02 
1.1302580e+00 1.0081252e+00 -4.3424420e-02 
1.1324903e+00 1.0103108e+00 -6.1504889e-02 
1.1369911e+00 1.0148191e+00 -5.8742050e-02 
1.1276305e+00 1.0055045e+00 -4.1711137e-02 
1.1253875e+00 1.0032479e+00 -4.8359483e-02 
1.1264459e+00 1.0042690e+00 -6.2311519e-02 
1.1287674e+00 1.0066265e+00 -5.0549727e-02 
1.1203424e+00 9.9819434e-01 -5.4729979e-02 
1.1206266e+00 9.9849975e-01 -4.2758327e-02 
1.1202475e+00 9.9808711e-01 -6.0278609e-02 
1.1314354e+00 1.0092306e+00 -6.8379521e-02 
1.1205887e+00 9.9846905e-01 -4.3418676e-02 
1.1252156e+00 1.0030302e+00 -6.2458538e-02 
1.1157199e+00 9.9359095e-01 -4.7718938e-02 
1.1192378e+00 9.9706596e-01 -6.0792662e-02 
1.1236209e+00 1.0014502e+00 -5.8617804e-02 
1.1135792e+00 9.9144709e-01 -5.1956039e-02 
1.1142323e+00 9.9212217e-01 -4.0763237e-02 
1.1131363e+00 9.9097151e-01 -6.1628114e-02 
1.1106430e+00 9.8851168e-01 -5.4172162e-02 
1.1150117e+00 9.9288368e-01 -5.0105326e-02 
1.1097708e+00 9.8766088e-01 -4.1524526e-02 
1.1068010e+00 9.8465753e-01 -5.9593558e-02 
1.1059883e+00 9.8387766e-01 -4.7071334e-02 
1.1177676e+00 9.9557054e-01 -6.7643441e-02 
1.1070812e+00 9.8498124e-01 -4.3236941e-02 
1.1113545e+00 9.8918629e-01 -6.1530016e-02 
1.1062305e+00 9.8407298e-01 -6.0171738e-02 
1.1106828e+00 9.8852408e-01 -5.9165336e-02 
1.1009128e+00 9.7880071e-01 -5.3567879e-02 
1.1011992e+00 9.7910732e-01 -4.1430067e-02 
1.1005474e+00 9.7846144e-01 -3.9803434e-02 
1.0995951e+00 9.7745502e-01 -6.0924049e-02 
1.0962660e+00 9.7417480e-01 -4.6428848e-02 
1.0986123e+00 9.7651243e-01 -4.9318284e-02 
1.0931662e+00 9.7105420e-01 -5.8894280e-02 
1.1041467e+00 9.8197043e-01 -6.6900000e-02 
1.0912216e+00 9.6912789e-01 -5.2937109e-02 
1.0915130e+00 9.6944034e-01 -4.0794555e-02 
1.0933940e+00 9.7132456e-01 -4.1519899e-02 
1.0970800e+00 9.7494644e-01 -5.8436465e-02 
1.0947658e+00 9.7262990e-01 -6.0689371e-02 
1.0902693e+00 9.6815103e-01 -5.9286304e-02 
1.0866088e+00 9.6453935e-01 -4.5795154e-02 
1.0869244e+00 9.6487111e-01 -3.8843904e-02 
1.0860775e+00 9.6397042e-01 -6.0232442e-02 
1.0859473e+00 9.6388799e-01 -4.6111535e-02 
1.0816021e+00 9.5953482e-01 -5.2305408e-02 
1.0813700e+00 9.5932370e-01 -3.9580122e-02 
1.0797551e+00 9.5767677e-01 -5.8202282e-02 
1.0905559e+00 9.6841115e-01 -6.6157311e-02 
1.0798715e+00 9.5784336e-01 -4.0505655e-02 
1.0770183e+00 9.5497823e-01 -4.5160815e-02 
1.0788534e+00 9.5676416e-01 -5.8750756e-02 
1.0824156e+00 9.6033561e-01 -5.4182209e-02 
1.0833714e+00 9.6126711e-01 -6.1234679e-02 
1.0779036e+00 9.5581794e-01 -5.8685578e-02 
1.0735027e+00 9.5149279e-01 -3.7912328e-02 
1.0720414e+00 9.5000684e-01 -5.1674888e-02 
1.0723352e+00 9.5032054e-01 -3.9542880e-02 
1.0727819e+00 9.5070940e-01 -5.9541214e-02 
1.0725392e+00 9.5052439e-01 -4.4970457e-02 
1.0674961e+00 9.4549334e-01 -4.4536941e-02 
1.0665646e+00 9.4452798e-01 -5.7508811e-02 
1.0770022e+00 9.5489979e-01 -6.5429412e-02 
1.0665563e+00 9.4457716e-01 -3.9516747e-02 
1.0639495e+00 9.4197136e-01 -3.8286418e-02 
1.0625601e+00 9.4056296e-01 -5.1045075e-02 
1.0656760e+00 9.4362617e-01 -5.8078058e-02 
1.0698376e+00 9.4777441e-01 -6.0506847e-02 
1.0699619e+00 9.4790828e-01 -5.6978688e-02 
1.0602865e+00 9.3832791e-01 -3.6999140e-02 
1.0649929e+00 9.4297546e-01 -5.0601438e-02 
1.0597026e+00 9.3768001e-01 -5.8854364e-02 
1.0580492e+00 9.3608123e-01 -4.3915130e-02 
1.0625029e+00 9.4046539e-01 -5.7834230e-02 
1.0593390e+00 9.3737829e-01 -4.3858495e-02 
1.0531411e+00 9.3118012e-01 -5.0423883e-02 
1.0535860e+00 9.3160641e-01 -5.6827527e-02 
1.0634648e+00 9.4140357e-01 -6.4675748e-02 
1.0534446e+00 9.3152475e-01 -3.8550984e-02 
1.0517426e+00 9.2981762e-01 -3.7344821e-02 
1.0527154e+00 9.3072259e-01 -5.7414208e-02 
1.0486565e+00 9.2673814e-01 -4.3303013e-02 
1.0563262e+00 9.3430465e-01 -5.9775848e-02 
1.0564457e+00 9.3443531e-01 -5.6250039e-02 
1.0472693e+00 9.2537802e-01 -3.6103871e-02 
1.0468370e+00 9.2487699e-01 -5.8173683e-02 
1.0437852e+00 9.2187703e-01 -4.9798381e-02 
1.0440805e+00 9.2219120e-01 -3.7714947e-02 
1.0493098e+00 9.2736858e-01 -4.8701428e-02 
1.0490367e+00 9.2705840e-01 -5.7074603e-02 
1.0463413e+00 9.2444777e-01 -4.2775508e-02 
1.0420985e+00 9.2021471e-01 -4.2887840e-02 
1.0408244e+00 9.1891366e-01 -5.6148879e-02 
1.0393387e+00 9.1747028e-01 -4.2698003e-02 
1.0499709e+00 9.2795950e-01 -6.3923381e-02 
1.0393271e+00 9.1747570e-01 -3.5769291e-02 
1.0405359e+00 9.1868514e-01 -3.7610617e-02 
1.0399705e+00 9.1804373e-01 -5.6758277e-02 
1.0428683e+00 9.2091376e-01 -5.9040517e-02 
1.0429820e+00 9.2104131e-01 -5.5522323e-02 
1.0345055e+00 9.1265672e-01 -4.9177717e-02 
1.0347894e+00 9.1295880e-01 -3.7122566e-02 
1.0342820e+00 9.1243619e-01 -4.5555972e-02 
1.0344470e+00 9.1263288e-01 -3.5236742e-02 
1.0344106e+00 9.1256082e-01 -4.7276668e-02 
1.0341927e+00 9.1230172e-01 -5.7492685e-02 
1.0358828e+00 9.1402513e-01 -4.8001092e-02 
1.0356222e+00 9.1372150e-01 -5.6313399e-02 
1.0335498e+00 9.1173303e-01 -4.1729670e-02 
1.0300934e+00 9.0828550e-01 -4.2090591e-02 
1.0300765e+00 9.0828675e-01 -3.5183113e-02 
1.0282744e+00 9.0644175e-01 -5.5462413e-02 
1.0265065e+00 9.0473169e-01 -3.7042752e-02 
1.0278163e+00 9.0605229e-01 -3.6687635e-02 
1.0365301e+00 9.1459250e-01 -6.3168526e-02 
1.0264257e+00 9.0464222e-01 -4.1942663e-02 
1.0252951e+00 9.0350437e-01 -4.8558701e-02 
1.0274448e+00 9.0559959e-01 -5.6119692e-02 
1.0294626e+00 9.0759557e-01 -5.8304641e-02 
1.0295712e+00 9.0771991e-01 -5.4794207e-02 
1.0209208e+00 8.9917898e-01 -4.1501828e-02 
1.0218295e+00 9.0010756e-01 -3.4385365e-02 
1.0217408e+00 8.9993882e-01 -5.6816649e-02 
1.0209501e+00 8.9922559e-01 -4.0685222e-02 
1.0225066e+00 9.0073687e-01 -4.7315169e-02 
1.0222570e+00 9.0044737e-01 -5.5563226e-02 
1.0161598e+00 8.9443737e-01 -4.7951970e-02 
1.0168766e+00 8.9516813e-01 -4.1850477e-02 
1.0164393e+00 8.9474541e-01 -3.5965297e-02 
1.0159264e+00 8.9418143e-01 -5.4795898e-02 
1.0152959e+00 8.9362270e-01 -3.5789169e-02 
1.0231456e+00 9.0129691e-01 -6.2409118e-02 
1.0151163e+00 8.9335889e-01 -5.5473804e-02 
1.0118148e+00 8.9014661e-01 -4.0908936e-02 
1.0117968e+00 8.9014643e-01 -3.4006108e-02 
1.0095314e+00 8.8786006e-01 -4.6391081e-02 
1.0095085e+00 8.8779646e-01 -5.6148253e-02 
1.0093971e+00 8.8777328e-01 -3.3554975e-02 
1.0161133e+00 8.9434057e-01 -5.7565641e-02 
1.0162174e+00 8.9446080e-01 -5.4062374e-02 
1.0081260e+00 8.8648623e-01 -4.1257564e-02 
1.0076499e+00 8.8600594e-01 -4.4885475e-02 
1.0070828e+00 8.8543791e-01 -4.7345310e-02 
1.0073657e+00 8.8575065e-01 -3.5391193e-02 
1.0085369e+00 8.8691503e-01 -3.9678164e-02 
1.0091769e+00 8.8751650e-01 -4.6615172e-02 
1.0089372e+00 8.8723373e-01 -5.4805264e-02 
1.0037855e+00 8.8214016e-01 -5.4128006e-02 
1.0027735e+00 8.8118958e-01 -4.0327858e-02 
1.0027575e+00 8.8119143e-01 -3.3435315e-02 
1.0029757e+00 8.8141608e-01 -3.4918178e-02 
1.0029831e+00 8.8132453e-01 -5.4851480e-02 
1.0098119e+00 8.8806266e-01 -6.1646402e-02 
9.9807465e-01 8.7651372e-01 -4.6744235e-02 
9.9836344e-01 8.7683165e-01 -3.4824889e-02 
9.9755323e-01 8.7600088e-01 -4.3591339e-02 
9.9747127e-01 8.7586707e-01 -5.5486292e-02 
9.9715382e-01 8.7564474e-01 -3.2730743e-02 
1.0028070e+00 8.8114226e-01 -5.6823477e-02 
1.0029076e+00 8.8125950e-01 -5.3328834e-02 
9.9379867e-01 8.7230033e-01 -3.9761383e-02 