# vtk DataFile Version 4.0
vtk output
ASCII
DATASET UNSTRUCTURED_GRID
POINTS 6166 float
-4.3633327e-01 9.6409470e-01 4.4200001e+01 
-4.3633261e-01 9.6409082e-01 4.4079685e+01 
-3.2145375e-01 9.1276109e-01 4.4200001e+01 
-3.8566181e-01 8.4097892e-01 4.4200001e+01 
-3.3069235e-01 9.1895354e-01 4.4019413e+01 
-3.8473952e-01 8.3919770e-01 4.4024357e+01 
-4.3633196e-01 9.6408689e-01 4.3958702e+01 
-2.1293370e-01 8.4677851e-01 4.4200001e+01 
-2.9042658e-01 7.3813015e-01 4.4200001e+01 
-2.1019450e-01 8.4669626e-01 4.4077393e+01 
-2.8909999e-01 7.3605996e-01 4.4073399e+01 
-3.2963324e-01 9.1929907e-01 4.3898094e+01 
-3.8679782e-01 8.4179753e-01 4.3889645e+01 
-2.0740938e-01 8.4661204e-01 4.3952713e+01 
-4.3633130e-01 9.6408290e-01 4.3837040e+01 
-1.1677200e-01 7.7521002e-01 4.4200001e+01 
-2.8775173e-01 7.3395580e-01 4.3944717e+01 
-1.9365783e-01 6.6203654e-01 4.4200001e+01 
-1.1309985e-01 7.7540898e-01 4.4012005e+01 
-1.9181472e-01 6.5888047e-01 4.4006447e+01 
-3.2856464e-01 9.1964108e-01 4.3776085e+01 
-3.8823184e-01 8.4352189e-01 4.3765770e+01 
-2.0457739e-01 8.4652513e-01 4.3825886e+01 
-2.8638119e-01 7.3181647e-01 4.3813885e+01 
-4.3633065e-01 9.6407896e-01 4.3714680e+01 
-1.0911675e-01 7.7426714e-01 4.3886200e+01 
-2.1001574e-02 6.8269837e-01 4.4200001e+01 
-1.8902887e-01 6.5566909e-01 4.3876659e+01 
-7.8887597e-02 5.9015810e-01 4.4200001e+01 
-3.2748649e-01 9.1997939e-01 4.3653378e+01 
-3.9889076e-01 8.5876143e-01 4.3651733e+01 
-2.0169757e-01 8.4643483e-01 4.3696846e+01 
-7.2496021e-03 6.7325598e-01 4.3947758e+01 
-1.0504345e-01 7.7307969e-01 4.3758209e+01 
-2.8498772e-01 7.2964084e-01 4.3680840e+01 
-6.3224643e-02 5.7783771e-01 4.3940754e+01 
3.5808440e-02 6.2679136e-01 4.4056572e+01 
-1.8616955e-01 6.5238589e-01 4.3744686e+01 
-4.3632996e-01 9.6407503e-01 4.3591618e+01 
-9.8678423e-03 5.4892725e-01 4.4055367e+01 
-1.8652271e-02 6.8798620e-01 4.3834026e+01 
-7.9845116e-02 5.8636194e-01 4.3823372e+01 
8.7777540e-02 5.7885915e-01 4.4200001e+01 
5.3622175e-02 5.1732427e-01 4.4200001e+01 
-3.2639861e-01 9.2031354e-01 4.3529953e+01 
-3.9894739e-01 8.5844576e-01 4.3528313e+01 
-1.9876897e-01 8.4634024e-01 4.3565521e+01 
-1.0087753e-01 7.7184403e-01 4.3627972e+01 
-2.8357074e-01 7.2742778e-01 4.3545506e+01 
-1.8323407e-01 6.4902818e-01 4.3610458e+01 
-4.3632931e-01 9.6407109e-01 4.3467831e+01 
3.1033519e-03 6.6751039e-01 4.3691772e+01 
-5.3600248e-02 5.6906003e-01 4.3676846e+01 
1.2436585e-01 5.5082864e-01 4.3886215e+01 
1.7079005e-01 5.1095647e-01 4.4054855e+01 
1.4951277e-01 4.6697062e-01 4.4053665e+01 
1.0028158e-01 4.8915190e-01 4.3877911e+01 
-4.0513036e-01 8.6722642e-01 4.3405304e+01 
-3.2530096e-01 9.2064321e-01 4.3405800e+01 
-9.6616447e-02 7.7055699e-01 4.3495411e+01 
-8.4563000e-03 6.8258613e-01 4.3574005e+01 
-1.9579062e-01 8.4624058e-01 4.3431831e+01 
2.1753120e-01 4.7335833e-01 4.4200001e+01 
2.0360756e-01 4.4289169e-01 4.4200001e+01 
-1.8021962e-01 6.4559317e-01 4.3473904e+01 
-7.0636064e-02 5.7773441e-01 4.3555408e+01 
-2.8212959e-01 7.2517604e-01 4.3407806e+01 
-4.3632865e-01 9.6406716e-01 4.3343307e+01 
1.3810426e-01 5.4143524e-01 4.3628246e+01 
-3.2419339e-01 9.2096806e-01 4.3280907e+01 
-3.9903235e-01 8.5775709e-01 4.3279266e+01 
-9.2257597e-02 7.6921552e-01 4.3360443e+01 
1.1508528e-01 4.7804743e-01 4.3612068e+01 
-1.9276154e-01 8.4613472e-01 4.3295704e+01 
1.4013666e-02 6.6131532e-01 4.3426643e+01 
-1.7712323e-01 6.4207786e-01 4.3334946e+01 
-2.8066361e-01 7.2288430e-01 4.3267666e+01 
-4.3382257e-02 5.5983055e-01 4.3403778e+01 
-4.3632799e-01 9.6406323e-01 4.3218033e+01 
3.7877345e-01 3.8273901e-01 4.4200001e+01 
3.9076596e-01 3.7443376e-01 4.3993755e+01 
-3.2307580e-01 9.2128778e-01 4.3155251e+01 
-3.9906058e-01 8.5738426e-01 4.3153610e+01 
-8.7798268e-02 7.6781619e-01 4.3222996e+01 
1.9689407e-02 6.5803534e-01 4.3290459e+01 
-6.0862999e-02 5.6866169e-01 4.3278019e+01 
-1.8968078e-01 8.4602165e-01 4.3157055e+01 
-1.7394182e-01 6.3847917e-01 4.3193501e+01 
-4.3632734e-01 9.6405929e-01 4.3091995e+01 
4.0275589e-01 3.6612594e-01 4.3787510e+01 
1.2304078e-01 5.5709994e-01 4.3330139e+01 
-2.7917209e-01 7.2055119e-01 4.3125000e+01 
2.5336364e-01 4.4907436e-01 4.3468094e+01 
2.3670304e-01 4.1684708e-01 4.3469433e+01 
1.3086085e-01 4.6634668e-01 4.3336948e+01 
-3.8351217e-01 8.3473074e-01 4.3036392e+01 
-3.2194808e-01 9.2160189e-01 4.3028820e+01 
2.5518833e-02 6.5462554e-01 4.3151749e+01 
-8.3235659e-02 7.6635528e-01 4.3082981e+01 
4.1474071e-01 3.5781288e-01 4.3581264e+01 
-1.8654740e-01 8.4590012e-01 4.3015797e+01 
-3.2522827e-02 5.5011308e-01 4.3120937e+01 
-1.7067213e-01 6.3479382e-01 4.3049488e+01 
-4.3632668e-01 9.6405542e-01 4.2965172e+01 
-2.7765438e-01 7.1817529e-01 4.2979721e+01 
2.6620242e-01 4.4011977e-01 4.3261948e+01 
1.3584816e-02 6.7044950e-01 4.3025066e+01 
-3.2081014e-01 9.2191011e-01 4.2901604e+01 
-3.8160574e-01 8.3169121e-01 4.2902863e+01 
-7.8566879e-02 7.6482886e-01 4.2940315e+01 
-5.0480481e-02 5.5910730e-01 4.2990566e+01 
4.2671782e-01 3.4949207e-01 4.3375019e+01 
1.6821145e-01 5.2049083e-01 4.3083881e+01 
-1.8336046e-01 8.4576881e-01 4.2871841e+01 
-4.3632606e-01 9.6405160e-01 4.2837555e+01 
-1.6731077e-01 6.3101834e-01 4.2902817e+01 
1.4768846e-01 4.5400122e-01 4.3051926e+01 
-2.7610970e-01 7.1575516e-01 4.2831745e+01 
-3.1966189e-01 9.2221189e-01 4.2773579e+01 
-3.8560396e-01 8.3684862e-01 4.2767078e+01 
3.7660085e-02 6.4738947e-01 4.2866421e+01 
-7.3788933e-02 7.6323271e-01 4.2794899e+01 
4.3868470e-01 3.4116083e-01 4.3168777e+01 
-4.3632543e-01 9.6404779e-01 4.2709122e+01 
-2.0968946e-02 5.3986710e-01 4.2827656e+01 
-1.8011902e-01 8.4562629e-01 4.2725094e+01 
-1.6385415e-01 6.2714905e-01 4.2753403e+01 
-2.7453732e-01 7.1328926e-01 4.2680973e+01 
-3.1850323e-01 9.2250693e-01 4.2644733e+01 
-3.9907700e-01 8.5570478e-01 4.2643101e+01 
2.5504474e-02 6.6361672e-01 4.2734810e+01 
1.8471870e-01 5.0880390e-01 4.2796177e+01 
-6.8898737e-02 7.6156229e-01 4.2646645e+01 
-3.9438177e-02 5.4903054e-01 4.2692345e+01 
-4.3632481e-01 9.6404403e-01 4.2579861e+01 
4.5063871e-01 3.3281663e-01 4.2962532e+01 
1.6565691e-01 4.4095638e-01 4.2756321e+01 
-1.7682223e-01 8.4547096e-01 4.2575459e+01 
-1.6029853e-01 6.2318206e-01 4.2601143e+01 
-4.0415615e-01 8.6278629e-01 4.2516582e+01 
-3.1733403e-01 9.2279470e-01 4.2515053e+01 
-2.7293649e-01 7.1077597e-01 4.2527313e+01 
5.0482783e-02 6.3954860e-01 4.2569923e+01 
-4.3632418e-01 9.6404034e-01 4.2449757e+01 
-6.3893095e-02 7.5981271e-01 4.2495445e+01 
-8.6617703e-03 5.2904755e-01 4.2523201e+01 
-1.7346917e-01 8.4530097e-01 4.2422829e+01 
-1.5663996e-01 6.1911333e-01 4.2445942e+01 
3.0435190e-01 4.1341871e-01 4.2643494e+01 
4.6257737e-01 3.2445681e-01 4.2756287e+01 
-3.1615424e-01 9.2307472e-01 4.2384518e+01 
-3.9902648e-01 8.5475212e-01 4.2382885e+01 
-2.7130640e-01 7.0821363e-01 4.2370659e+01 
3.8079392e-02 6.5619886e-01 4.2433029e+01 
2.0230262e-01 4.9620378e-01 4.2497147e+01 
-4.3632355e-01 9.6403670e-01 4.2318787e+01 
-5.8768708e-02 7.5797862e-01 4.2341198e+01 
-2.7680276e-02 5.3838593e-01 4.2382599e+01 
1.8486446e-01 4.2715022e-01 4.2449394e+01 
-3.8436696e-01 8.3356136e-01 4.2264896e+01 
8.9545198e-02 5.3233254e-01 4.2382050e+01 
-3.3225983e-01 9.3122375e-01 4.2255634e+01 
-1.7005907e-01 8.4511453e-01 4.2267101e+01 
-1.5287429e-01 6.1493850e-01 4.2287693e+01 
4.7449806e-01 3.1607881e-01 4.2550037e+01 
-2.6964626e-01 7.0560038e-01 4.2210907e+01 
-4.3632296e-01 9.6403313e-01 4.2186939e+01 
6.4036883e-02 6.3103610e-01 4.2261456e+01 
-5.3522192e-02 7.5605446e-01 4.2183796e+01 
-3.7873057e-01 8.2541841e-01 4.2124020e+01 
-3.1376252e-01 9.2360973e-01 4.2120819e+01 
4.4639236e-03 5.1760370e-01 4.2206776e+01 
-1.6659111e-01 8.4490943e-01 4.2108162e+01 
-1.4899719e-01 6.1065292e-01 4.2126286e+01 
-4.3632239e-01 9.6402961e-01 4.2054195e+01 
4.8639825e-01 3.0768004e-01 4.2343792e+01 
-2.6795524e-01 7.0293444e-01 4.2047943e+01 
2.4746621e-01 4.6040925e-01 4.2191032e+01 
7.1105182e-02 6.2650448e-01 4.2102463e+01 
-3.1255043e-01 9.2386365e-01 4.1987617e+01 
-4.8150036e-02 7.5403398e-01 4.2023121e+01 
-1.5144684e-02 5.2712250e-01 4.2060505e+01 
-3.7995064e-01 8.2661813e-01 4.1980038e+01 
2.0541981e-01 4.1251117e-01 4.2130333e+01 
-1.6306458e-01 8.4468329e-01 4.1945896e+01 
-4.3632182e-01 9.6402621e-01 4.1920536e+01 
-1.4500406e-01 6.0625184e-01 4.1961609e+01 
1.3375351e-01 5.6370503e-01 4.1969833e+01 
-2.6623246e-01 7.0021385e-01 4.1881653e+01 
-3.1132740e-01 9.2410773e-01 4.1853493e+01 
-3.9880505e-01 8.5261923e-01 4.1851868e+01 
4.9827534e-01 2.9925787e-01 4.2137547e+01 
3.4194937e-01 3.8685825e-01 4.2025021e+01 
-4.2648647e-02 7.5191063e-01 4.1859051e+01 
-2.5401810e-01 7.9503769e-01 4.1808533e+01 
1.8480448e-02 5.0547802e-01 4.1877510e+01 
-4.3632126e-01 9.6402287e-01 4.1785946e+01 
-1.5947884e-01 8.4443361e-01 4.1780174e+01 
-1.4089009e-01 6.0172999e-01 4.1793541e+01 
-3.1009343e-01 9.2434150e-01 4.1718426e+01 
-4.0306881e-01 8.5845691e-01 4.1716179e+01 
8.5861288e-02 6.1683756e-01 4.1774368e+01 
-2.6447710e-01 6.9743657e-01 4.1711910e+01 
3.0427080e-01 4.1638452e-01 4.1839512e+01 
2.6751360e-01 3.7833902e-01 4.1830902e+01 
5.1012677e-01 2.9080975e-01 4.1931297e+01 
-3.7014309e-02 7.4967718e-01 4.1691463e+01 
-4.3632072e-01 9.6401966e-01 4.1650398e+01 
2.5847588e-02 4.9913955e-01 4.1707767e+01 
-1.5583332e-01 8.4415752e-01 4.1610870e+01 
-3.8322043e-01 8.2981020e-01 4.1595791e+01 
-3.0884841e-01 9.2456430e-01 4.1582397e+01 
-1.3665022e-01 5.9708190e-01 4.1621960e+01 
9.3565010e-02 6.1167872e-01 4.1605015e+01 
-2.6268822e-01 6.9460052e-01 4.1538593e+01 
-4.3632022e-01 9.6401656e-01 4.1513885e+01 
-3.1243213e-02 7.4732590e-01 4.1520226e+01 
2.7603787e-01 3.7115356e-01 4.1624012e+01 
2.8505871e-01 4.3281260e-01 4.1611507e+01 
5.2195001e-01 2.8233302e-01 4.1725052e+01 
3.3468332e-02 4.9260557e-01 4.1534447e+01 
-3.9853087e-01 8.5081697e-01 4.1443768e+01 
-3.2560509e-01 9.3245691e-01 4.1443577e+01 
-1.5212752e-01 8.4385180e-01 4.1437847e+01 
-1.3227913e-01 5.9230179e-01 4.1446728e+01 
-4.3631971e-01 9.6401358e-01 4.1376381e+01 
[...]
POINT_DATA 6166
FIELD FieldData 5
DISPLACEMENT 3 6166  float
2.7062845e-01 2.4659257e-01 -2.5542825e-03 
2.6897672e-01 2.4493620e-01 -2.5315338e-03 
2.7059886e-01 2.4653383e-01 -3.4236563e-03 
2.7057871e-01 2.4657619e-01 -1.5539395e-03 
2.6812282e-01 2.4405229e-01 -3.3480937e-03 
2.6816669e-01 2.4415782e-01 -1.5089255e-03 
2.6731578e-01 2.4327065e-01 -2.5086487e-03 
2.7056450e-01 2.4647999e-01 -4.0040016e-03 
2.7053216e-01 2.4653322e-01 -1.4442449e-03 
2.6888102e-01 2.4479061e-01 -4.0173223e-03 
2.6879323e-01 2.4478979e-01 -1.4100506e-03 
2.6645732e-01 2.4238148e-01 -3.3444755e-03 
2.6631847e-01 2.4230418e-01 -1.4910769e-03 
2.6716906e-01 2.4307261e-01 -4.0308423e-03 
2.6564553e-01 2.4159575e-01 -2.4856252e-03 
2.7052927e-01 2.4643353e-01 -4.3378291e-03 
2.6702574e-01 2.4301772e-01 -1.3753072e-03 
2.7049521e-01 2.4648684e-01 -1.7240802e-03 
2.6794815e-01 2.4384342e-01 -4.3554851e-03 
2.6783675e-01 2.4382158e-01 -1.6693971e-03 
2.6478237e-01 2.4070124e-01 -3.3407849e-03 
2.6461864e-01 2.4059945e-01 -1.4717919e-03 
2.6542765e-01 2.4132511e-01 -4.0445449e-03 
2.6522878e-01 2.4121609e-01 -1.3400132e-03 
2.6396576e-01 2.3991132e-01 -2.4624672e-03 
2.6622024e-01 2.4210939e-01 -4.3706554e-03 
2.7048641e-01 2.4638924e-01 -4.3778303e-03 
2.6605350e-01 2.4203357e-01 -1.6389377e-03 
2.7045807e-01 2.4643010e-01 -2.3089712e-03 
2.6309785e-01 2.3901141e-01 -3.3370089e-03 
2.6305974e-01 2.3903409e-01 -1.5139270e-03 
2.6365587e-01 2.3954718e-01 -4.0584076e-03 
2.6701880e-01 2.4290998e-01 -4.3888842e-03 
2.6446241e-01 2.4034536e-01 -4.3860013e-03 
2.6340145e-01 2.3938404e-01 -1.3041686e-03 
2.6689309e-01 2.4285366e-01 -2.3053314e-03 
2.6849160e-01 2.4438855e-01 -4.3603070e-03 
2.6424032e-01 2.4021554e-01 -1.6081397e-03 
2.6227638e-01 2.3821723e-01 -2.4391839e-03 
2.6845086e-01 2.4440461e-01 -2.6608999e-03 
2.6546398e-01 2.4134926e-01 -4.4138203e-03 
2.6528630e-01 2.4124610e-01 -2.1725651e-03 
2.7043816e-01 2.4633881e-01 -4.4403146e-03 
2.7041888e-01 2.4636360e-01 -3.1241118e-03 
2.6140359e-01 2.3731190e-01 -3.3331758e-03 
2.6136538e-01 2.3733522e-01 -1.4855970e-03 
2.6185283e-01 2.3773791e-01 -4.0724101e-03 
2.6267371e-01 2.3855041e-01 -4.4014910e-03 
2.6154280e-01 2.3752058e-01 -1.2677292e-03 
2.6239622e-01 2.3836657e-01 -1.5769476e-03 
2.6057714e-01 2.3651342e-01 -2.4157092e-03 
2.6350158e-01 2.3938091e-01 -4.4034496e-03 
2.6326600e-01 2.3921616e-01 -2.2668191e-03 
2.6611671e-01 2.4200138e-01 -4.4970843e-03 
2.6841289e-01 2.4430105e-01 -4.6167821e-03 
2.6838246e-01 2.4430065e-01 -3.7187727e-03 
2.6598245e-01 2.4190630e-01 -3.3155982e-03 
2.5968081e-01 2.3564483e-01 -1.4985460e-03 
2.5969946e-01 2.3560250e-01 -3.3291755e-03 
2.6085320e-01 2.3672357e-01 -4.4170916e-03 
2.6189160e-01 2.3776484e-01 -4.4301772e-03 
2.6001751e-01 2.3589627e-01 -4.0865266e-03 
2.7038729e-01 2.4627692e-01 -4.7676968e-03 
2.7037749e-01 2.4628752e-01 -4.1570133e-03 
2.6052031e-01 2.3648572e-01 -1.5454534e-03 
2.6160386e-01 2.3755330e-01 -2.1297429e-03 
2.5965184e-01 2.3562485e-01 -1.2307899e-03 
2.5886804e-01 2.3479967e-01 -2.3921586e-03 
2.6257062e-01 2.3844351e-01 -4.5075067e-03 
2.5798538e-01 2.3388326e-01 -3.3251918e-03 
2.5794700e-01 2.3390791e-01 -1.4282316e-03 
2.5899991e-01 2.3486389e-01 -4.4327639e-03 
2.6232749e-01 2.3823957e-01 -3.3157312e-03 
2.5814891e-01 2.3402140e-01 -4.1006976e-03 
2.5985903e-01 2.3572622e-01 -4.4176430e-03 
2.5861159e-01 2.3457201e-01 -1.5136247e-03 
2.5772759e-01 2.3369575e-01 -1.1931622e-03 
2.5951347e-01 2.3545298e-01 -2.2287217e-03 
2.5714883e-01 2.3307590e-01 -2.3684076e-03 
2.7033892e-01 2.4619612e-01 -5.7321000e-03 
2.6750335e-01 2.4335089e-01 -5.7433415e-03 
2.5626111e-01 2.3215371e-01 -3.3210635e-03 
2.5622270e-01 2.3217915e-01 -1.3991930e-03 
2.5711280e-01 2.3297043e-01 -4.4484716e-03 
2.5798830e-01 2.3384939e-01 -4.4244598e-03 
2.5779262e-01 2.3373142e-01 -2.0870976e-03 
2.5624594e-01 2.3211218e-01 -4.1148728e-03 
2.5666910e-01 2.3262453e-01 -1.4814533e-03 
2.5541934e-01 2.3134191e-01 -2.3445217e-03 
2.6466781e-01 2.4050578e-01 -5.7544815e-03 
2.5848603e-01 2.3434752e-01 -4.4600354e-03 
2.5576907e-01 2.3173244e-01 -1.1550036e-03 
2.6032761e-01 2.3618406e-01 -4.7866786e-03 
2.6033577e-01 2.3621474e-01 -4.1146479e-03 
2.5854552e-01 2.3444547e-01 -3.3192518e-03 
2.5460476e-01 2.3056032e-01 -1.2788379e-03 
2.5452653e-01 2.3041409e-01 -3.3166849e-03 
2.5608322e-01 2.3193832e-01 -4.4311276e-03 
2.5519076e-01 2.3104210e-01 -4.4642198e-03 
2.6183251e-01 2.3766103e-01 -5.7654101e-03 
2.5430769e-01 2.3016764e-01 -4.1292505e-03 
2.5562772e-01 2.3155652e-01 -2.1912456e-03 
2.5469163e-01 2.3064218e-01 -1.4488045e-03 
2.5367954e-01 2.2959767e-01 -2.3204412e-03 
2.5377515e-01 2.2973374e-01 -1.1162347e-03 
2.5749406e-01 2.3334117e-01 -4.8002615e-03 
2.5435227e-01 2.3020113e-01 -4.4611525e-03 
2.5278145e-01 2.2866416e-01 -3.3122809e-03 
2.5277182e-01 2.2872332e-01 -1.2381916e-03 
2.5323275e-01 2.2907780e-01 -4.4799135e-03 
2.5384444e-01 2.2977272e-01 -2.0446219e-03 
2.5899786e-01 2.3481701e-01 -5.7758321e-03 
2.5508949e-01 2.3093832e-01 -4.5290487e-03 
2.5233284e-01 2.2818659e-01 -4.1435272e-03 
2.5192904e-01 2.2784296e-01 -2.2961462e-03 
2.5267828e-01 2.2862396e-01 -1.4159940e-03 
2.5462881e-01 2.3051655e-01 -3.3268919e-03 
2.5174466e-01 2.2769871e-01 -1.0768931e-03 
2.5102571e-01 2.2690365e-01 -3.3076478e-03 
2.5091210e-01 2.2685841e-01 -1.2291623e-03 
2.5216565e-01 2.2800884e-01 -4.4436911e-03 
2.5123763e-01 2.2707646e-01 -4.4955327e-03 
2.5616333e-01 2.3197328e-01 -5.7861004e-03 
2.5016794e-01 2.2607781e-01 -2.2718078e-03 
2.5160033e-01 2.2751856e-01 -2.1543296e-03 
2.5032035e-01 2.2616807e-01 -4.1576908e-03 
2.5062767e-01 2.2656873e-01 -1.3826432e-03 
2.4967670e-01 2.2562626e-01 -1.0370860e-03 
2.4925938e-01 2.2513267e-01 -3.3027662e-03 
2.4922076e-01 2.2516070e-01 -1.2808362e-03 
2.5036830e-01 2.2620529e-01 -4.4750473e-03 
2.5113785e-01 2.2697483e-01 -4.5401054e-03 
2.4920422e-01 2.2503702e-01 -4.5108665e-03 
2.4975054e-01 2.2566865e-01 -2.0023636e-03 
2.4839632e-01 2.2430217e-01 -2.2474667e-03 
2.5333008e-01 2.2913142e-01 -5.7959552e-03 
2.5056857e-01 2.2644410e-01 -3.3386729e-03 
2.4826913e-01 2.2411107e-01 -4.1717095e-03 
2.4853915e-01 2.2447555e-01 -1.3492963e-03 
2.4748996e-01 2.2342531e-01 -1.2852561e-03 
2.4748239e-01 2.2335146e-01 -3.2979944e-03 
2.4757014e-01 2.2351526e-01 -9.9645194e-04 
2.4809755e-01 2.2392921e-01 -4.4546779e-03 
2.4661376e-01 2.2251591e-01 -2.2227687e-03 
2.4713168e-01 2.2295873e-01 -4.5259912e-03 
2.4742283e-01 2.2333106e-01 -2.1185172e-03 
2.4617790e-01 2.2201419e-01 -4.1855867e-03 
2.4641159e-01 2.2234353e-01 -1.3151588e-03 
2.4899949e-01 2.2482084e-01 -4.8385826e-03 
2.5049827e-01 2.2629158e-01 -5.8053192e-03 
2.4569435e-01 2.2155893e-01 -3.2930325e-03 
2.4565566e-01 2.2158825e-01 -1.2206925e-03 
2.4542361e-01 2.2136471e-01 -9.5512549e-04 
2.4622981e-01 2.2205581e-01 -4.4875233e-03 
2.4703397e-01 2.2285986e-01 -4.5509748e-03 
2.4482025e-01 2.2071874e-01 -2.1981357e-03 
2.4501811e-01 2.2083962e-01 -4.5411149e-03 
2.4550256e-01 2.2141123e-01 -1.9607593e-03 
2.4635646e-01 2.2222064e-01 -3.3551087e-03 
2.4403143e-01 2.1996373e-01 -1.1091685e-03 
2.4548171e-01 2.2133949e-01 -3.4817760e-03 
2.4393444e-01 2.1979925e-01 -3.1595919e-03 
2.4404539e-01 2.1987623e-01 -4.1992939e-03 
2.4424292e-01 2.2017090e-01 -1.2811185e-03 
2.4766773e-01 2.2345296e-01 -5.8138389e-03 
2.4323589e-01 2.1917334e-01 -9.1350835e-04 
2.4301592e-01 2.1891117e-01 -2.1732964e-03 
2.4386896e-01 2.1969019e-01 -4.4641811e-03 
2.4286273e-01 2.1867873e-01 -4.5557828e-03 
2.4210036e-01 2.1803060e-01 -1.0488653e-03 
2.4208556e-01 2.1794221e-01 -3.2820115e-03 
2.4308506e-01 2.1898416e-01 -2.0836389e-03 
2.4187048e-01 2.1769610e-01 -4.2130351e-03 
2.4203230e-01 2.1795668e-01 -1.2463296e-03 
2.4120039e-01 2.1709250e-01 -2.1481207e-03 
2.4483885e-01 2.2061709e-01 -5.8217901e-03 
2.4100572e-01 2.1693981e-01 -8.7111560e-04 
2.4282584e-01 2.1863970e-01 -4.6196575e-03 
2.4169172e-01 2.1750775e-01 -4.4682622e-03 
2.4026418e-01 2.1611767e-01 -3.2763758e-03 
2.4066399e-01 2.1647494e-01 -4.5698415e-03 
2.4108966e-01 2.1698999e-01 -1.9198685e-03 
2.4013199e-01 2.1605922e-01 -1.0224490e-03 
2.4198200e-01 2.1783535e-01 -3.3764706e-03 
2.3965165e-01 2.1547239e-01 -4.2261533e-03 
2.3937306e-01 2.1526271e-01 -2.1226536e-03 
2.3977886e-01 2.1570006e-01 -1.2117943e-03 
2.3984960e-01 2.1566327e-01 -4.4382941e-03 
2.3873205e-01 2.1466349e-01 -8.2838081e-04 
2.3843141e-01 2.1428195e-01 -3.2701525e-03 
2.3839211e-01 2.1431360e-01 -1.0980552e-03 
2.4201316e-01 2.1778533e-01 -5.8289785e-03 
2.4052025e-01 2.1632096e-01 -4.8706364e-03 
2.3842102e-01 2.1422735e-01 -4.5832880e-03 
2.3776625e-01 2.1364824e-01 -2.2786174e-03 
2.3857757e-01 2.1446906e-01 -2.0502401e-03 
2.3753490e-01 2.1342263e-01 -2.0970909e-03 
2.3738809e-01 2.1320491e-01 -4.2379871e-03 
2.3748164e-01 2.1340002e-01 -1.1775506e-03 
2.3658752e-01 2.1243566e-01 -3.2637913e-03 
2.3654266e-01 2.1246178e-01 -1.0957514e-03 
2.3720382e-01 2.1301161e-01 -4.4729812e-03 
2.3641379e-01 2.1234336e-01 -7.8541966e-04 
2.3799925e-01 2.1380009e-01 -4.7254176e-03 
2.3787118e-01 2.1370600e-01 -3.7018331e-03 
2.3918869e-01 2.1495457e-01 -5.8348891e-03 
2.3613289e-01 2.1193522e-01 -4.5958781e-03 
2.3568557e-01 2.1157181e-01 -2.0720453e-03 
2.3625779e-01 2.1214651e-01 -2.0348406e-03 
2.3507871e-01 2.1089193e-01 -4.2495662e-03 
2.3488887e-01 2.1081071e-01 -9.5452275e-04 
2.3473315e-01 2.1057941e-01 -3.2566716e-03 
2.3513871e-01 2.1105568e-01 -1.1420741e-03 
2.3489194e-01 2.1069640e-01 -4.4749221e-03 
2.3405030e-01 2.0997855e-01 -7.4158504e-04 
2.3382619e-01 2.0971078e-01 -2.0466906e-03 
2.3379743e-01 2.0959693e-01 -4.6077431e-03 
2.3504524e-01 2.1087687e-01 -3.6818411e-03 
2.3489638e-01 2.1069549e-01 -4.6439944e-03 
2.3636846e-01 2.1212970e-01 -5.8397097e-03 
2.3389193e-01 2.0977874e-01 -2.0193867e-03 
2.3282829e-01 2.0874576e-01 -1.0054560e-03 
2.3284763e-01 2.0869631e-01 -3.1093997e-03 
2.3272143e-01 2.0853251e-01 -4.2610466e-03 
2.3274979e-01 2.0866589e-01 -1.1071529e-03 
2.3195459e-01 2.0783854e-01 -2.0206065e-03 
2.3286273e-01 2.0866643e-01 -4.4458378e-03 
2.3163942e-01 2.0756739e-01 -6.9764309e-04 
2.3141414e-01 2.0721154e-01 -4.6189190e-03 
2.3099047e-01 2.0683420e-01 -3.2428387e-03 
2.3095010e-01 2.0686808e-01 -9.7407657e-04 
2.3147909e-01 2.0736492e-01 -2.0046870e-03 
2.3235638e-01 2.0818338e-01 -3.7535047e-03 
2.3355281e-01 2.0931062e-01 -5.8437902e-03 
2.3031585e-01 2.0612518e-01 -4.2716675e-03 
2.3193714e-01 2.0773138e-01 -4.7220937e-03 
2.3007132e-01 2.0595588e-01 -1.9936466e-03 
2.3031297e-01 2.0622927e-01 -1.0719993e-03 
2.3037225e-01 2.0617510e-01 -4.4406764e-03 
2.2910126e-01 2.0494530e-01 -3.2350125e-03 
2.2906080e-01 2.0498043e-01 -9.4245485e-04 
2.2918013e-01 2.0510910e-01 -6.5284531e-04 
2.2898108e-01 2.0477746e-01 -4.6293992e-03 
2.2901775e-01 2.0490381e-01 -1.9905004e-03 
2.2817659e-01 2.0406273e-01 -1.9673691e-03 
2.2966553e-01 2.0549536e-01 -3.6499756e-03 
2.3074216e-01 2.0649786e-01 -5.8463793e-03 
2.2785953e-01 2.0366853e-01 -4.2815884e-03 
2.2782663e-01 2.0374453e-01 -1.0365875e-03 
2.2920717e-01 2.0500000e-01 -4.7471179e-03 
2.2720076e-01 2.0304543e-01 -3.2267396e-03 
2.2716053e-01 2.0308164e-01 -9.1083039e-04 
2.2778405e-01 2.0358710e-01 -4.4397027e-03 
2.2667044e-01 2.0260218e-01 -6.0750043e-04 
2.2627068e-01 2.0215818e-01 -1.9414710e-03 
2.2649637e-01 2.0229334e-01 -4.6389429e-03 
2.2650602e-01 2.0239358e-01 -1.9768588e-03 
2.2528933e-01 2.0113547e-01 -3.2183763e-03 
2.2524856e-01 2.0117138e-01 -8.7847695e-04 
2.2535078e-01 2.0116130e-01 -4.2911097e-03 
2.2793685e-01 2.0369196e-01 -5.8474676e-03 
2.2528915e-01 2.0121028e-01 -1.0010189e-03 
2.2648960e-01 2.0232382e-01 -3.5444163e-03 
2.2649933e-01 2.0229167e-01 -4.7758655e-03 
2.2435275e-01 2.0024285e-01 -1.9142398e-03 
2.2515465e-01 2.0095930e-01 -4.4374447e-03 
2.2410898e-01 2.0004508e-01 -5.6216423e-04 
2.2395892e-01 1.9975792e-01 -4.6469327e-03 
2.2432512e-01 2.0020904e-01 -2.1449290e-03 
2.2336473e-01 1.9921368e-01 -3.2097278e-03 
2.2332485e-01 1.9925183e-01 -8.4775273e-04 
2.2278860e-01 1.9860207e-01 -4.2989529e-03 
2.2513680e-01 2.0089246e-01 -5.8494876e-03 
2.2242337e-01 1.9831786e-01 -1.8889735e-03 
2.2269985e-01 1.9862559e-01 -9.6528494e-04 
2.2375493e-01 1.9954967e-01 -4.7687651e-03 
2.2344081e-01 1.9927077e-01 -3.7460686e-03 
2.2252081e-01 1.9832845e-01 -4.4347965e-03 
2.2142981e-01 1.9728263e-01 -3.2018174e-03 
2.2138877e-01 1.9732079e-01 -8.1637001e-04 
2.2149538e-01 1.9743712e-01 -5.1526242e-04 
2.2136736e-01 1.9717011e-01 -4.6535609e-03 
2.2170822e-01 1.9759235e-01 -2.2523531e-03 
2.2048166e-01 1.9638072e-01 -1.8627726e-03 
2.2017273e-01 1.9599025e-01 -4.3056486e-03 
2.2007856e-01 1.9597034e-01 -2.1022686e-03 
2.2234301e-01 1.9810207e-01 -5.8494448e-03 
2.2005700e-01 1.9598912e-01 -9.2943979e-04 
2.2104357e-01 1.9684339e-01 -4.7205468e-03 
2.1948254e-01 1.9533989e-01 -3.1913223e-03 
2.1944083e-01 1.9537750e-01 -7.8413560e-04 
2.1986522e-01 1.9567762e-01 -4.4351090e-03 
2.2066566e-01 1.9649674e-01 -3.8318736e-03 
2.1882696e-01 1.9477631e-01 -4.6895229e-04 
2.1852854e-01 1.9443274e-01 -1.8349648e-03 
2.1871974e-01 1.9452800e-01 -4.6593212e-03 
2.1899791e-01 1.9488831e-01 -2.2557266e-03 
2.1752276e-01 1.9338532e-01 -3.1822487e-03 
2.1748249e-01 1.9342527e-01 -7.5255713e-04 
2.1749757e-01 1.9332258e-01 -4.3106787e-03 
2.1955384e-01 1.9531734e-01 -5.8485386e-03 
2.1735859e-01 1.9329913e-01 -8.9380040e-04 
2.1831661e-01 1.9412230e-01 -4.7111232e-03 
2.1656318e-01 1.9247423e-01 -1.8087672e-03 
2.1717201e-01 1.9299170e-01 -4.4325888e-03 
2.1794525e-01 1.9377856e-01 -3.9508021e-03 
2.1608405e-01 1.9196820e-01 -2.6947486e-03 
2.1610205e-01 1.9206165e-01 -4.2067049e-04 
2.1601382e-01 1.9183007e-01 -4.6631014e-03 
2.1555153e-01 1.9142190e-01 -3.1728833e-03 
2.1619911e-01 1.9209614e-01 -2.3136495e-03 
2.1526165e-01 1.9121654e-01 -6.1950379e-04 
2.1476512e-01 1.9059913e-01 -4.3152994e-03 
2.1458489e-01 1.9050461e-01 -1.7815714e-03 
2.1677345e-01 1.9254458e-01 -5.8454401e-03 
2.1460676e-01 1.9055359e-01 -1.0024174e-03 
2.1550053e-01 1.9131705e-01 -4.6706214e-03 
2.1453571e-01 1.9036344e-01 -4.4450709e-03 
2.1531351e-01 1.9114710e-01 -4.2005912e-03 
2.1357404e-01 1.8945293e-01 -3.1541225e-03 
2.1353321e-01 1.8949291e-01 -6.9137954e-04 
2.1331953e-01 1.8929113e-01 -3.7267615e-04 
2.1326175e-01 1.8908888e-01 -4.6644821e-03 
2.1260887e-01 1.8853733e-01 -1.7550971e-03 
2.1286373e-01 1.8877304e-01 -2.3295158e-03 
2.1199478e-01 1.8784095e-01 -4.3185903e-03 
2.1400325e-01 1.8978477e-01 -5.8397544e-03 
2.1160486e-01 1.8749227e-01 -3.1294900e-03 
2.1156527e-01 1.8753353e-01 -6.6597614e-04 
2.1182862e-01 1.8779354e-01 -7.9984596e-04 
2.1254721e-01 1.8839189e-01 -4.1977149e-03 
2.1212599e-01 1.8795609e-01 -4.6768780e-03 
2.1129048e-01 1.8713345e-01 -4.4355080e-03 
2.1064642e-01 1.8658388e-01 -1.7296155e-03 
2.1055000e-01 1.8653524e-01 -3.2361579e-04 
2.1051663e-01 1.8635611e-01 -4.6677901e-03 
2.1029313e-01 1.8623197e-01 -1.8131322e-03 
2.0965044e-01 1.8554799e-01 -3.1036262e-03 
2.0948936e-01 1.8547136e-01 -5.2865403e-04 
2.0927040e-01 1.8512896e-01 -4.3205931e-03 
2.1123964e-01 1.8703382e-01 -5.8334516e-03 
2.0908013e-01 1.8506089e-01 -7.3840714e-04 
2.0869757e-01 1.8464579e-01 -1.7029698e-03 
2.0897675e-01 1.8483002e-01 -4.4477531e-03 
2.0956661e-01 1.8545064e-01 -3.4900415e-03 
2.0979182e-01 1.8562613e-01 -4.9096406e-03 
2.0872614e-01 1.8458076e-01 -4.4477754e-03 
2.0782205e-01 1.8382297e-01 -2.7777220e-04 
2.0770811e-01 1.8361704e-01 -3.0771054e-03 
2.0766953e-01 1.8365873e-01 -6.1644870e-04 
2.0781700e-01 1.8366900e-01 -4.6683159e-03 
2.0756805e-01 1.8352428e-01 -1.7243663e-03 
2.0676309e-01 1.8272340e-01 -1.6774751e-03 
2.0659129e-01 1.8246379e-01 -4.3193060e-03 
2.0848435e-01 1.8429312e-01 -5.8293417e-03 
2.0637451e-01 1.8237253e-01 -6.7950098e-04 
2.0594628e-01 1.8195151e-01 -4.5178863e-04 
2.0578234e-01 1.8170360e-01 -3.0495063e-03 
2.0630279e-01 1.8216951e-01 -4.4504614e-03 
2.0704058e-01 1.8288924e-01 -4.9052089e-03 
2.0703395e-01 1.8290682e-01 -4.1897153e-03 
2.0513663e-01 1.8115465e-01 -2.3301189e-04 
2.0602611e-01 1.8194701e-01 -2.9481461e-03 
2.0516175e-01 1.8102942e-01 -4.6668500e-03 
2.0484430e-01 1.8081626e-01 -1.6512747e-03 
2.0559485e-01 1.8146612e-01 -4.4381130e-03 
2.0488611e-01 1.8086144e-01 -1.6387497e-03 
2.0386964e-01 1.7980276e-01 -3.0228568e-03 
2.0395577e-01 1.7984532e-01 -4.3178620e-03 
2.0573269e-01 1.8155597e-01 -5.8193654e-03 
2.0371100e-01 1.7972817e-01 -6.2264240e-04 
2.0346306e-01 1.7948583e-01 -3.9020117e-04 
2.0367336e-01 1.7955706e-01 -4.4520320e-03 
2.0293677e-01 1.7892335e-01 -1.6263275e-03 
2.0429461e-01 1.8015757e-01 -4.8996583e-03 
2.0428714e-01 1.8017456e-01 -4.1849283e-03 
2.0249227e-01 1.7853057e-01 -1.8929268e-04 
2.0255046e-01 1.7843634e-01 -4.6637487e-03 
2.0196977e-01 1.7791837e-01 -2.9943702e-03 
2.0193252e-01 1.7796057e-01 -5.4483919e-04 
2.0284010e-01 1.7878990e-01 -2.7283537e-03 
2.0285785e-01 1.7874730e-01 -4.4256528e-03 
2.0224606e-01 1.7824298e-01 -1.5564476e-03 
2.0149945e-01 1.7749704e-01 -1.6171178e-03 
2.0136504e-01 1.7727393e-01 -4.3139737e-03 
2.0104481e-01 1.7704593e-01 -1.6017845e-03 
2.0299074e-01 1.7883036e-01 -5.8086892e-03 
2.0091218e-01 1.7696093e-01 -2.0331706e-04 
2.0108964e-01 1.7712770e-01 -5.6837103e-04 
2.0108840e-01 1.7699087e-01 -4.4522439e-03 
2.0156030e-01 1.7744306e-01 -4.8917499e-03 
2.0155180e-01 1.7745954e-01 -4.1788719e-03 
2.0008585e-01 1.7605120e-01 -2.9656801e-03 
2.0004666e-01 1.7609103e-01 -5.2260217e-04 
1.9996153e-01 1.7595059e-01 -2.2377542e-03 
1.9988838e-01 1.7594880e-01 -1.4875340e-04 
1.9995710e-01 1.7593491e-01 -2.5871752e-03 
1.9998482e-01 1.7589016e-01 -4.6575041e-03 
2.0011269e-01 1.7608531e-01 -2.7272750e-03 
2.0013225e-01 1.7604369e-01 -4.4116187e-03 
1.9964907e-01 1.7566927e-01 -1.4791399e-03 
1.9916783e-01 1.7518587e-01 -1.5754437e-03 
1.9903509e-01 1.7510079e-01 -1.8193823e-04 
1.9881761e-01 1.7474797e-01 -4.3054326e-03 
1.9837531e-01 1.7443210e-01 -5.9271185e-04 
1.9850743e-01 1.7457007e-01 -5.1503064e-04 
2.0026042e-01 1.7612140e-01 -5.7960507e-03 
1.9832090e-01 1.7434612e-01 -1.5896797e-03 
1.9821636e-01 1.7419811e-01 -2.9361795e-03 
1.9854878e-01 1.7447317e-01 -4.4531301e-03 
1.9883746e-01 1.7474425e-01 -4.8823892e-03 
1.9882812e-01 1.7476019e-01 -4.1713533e-03 
1.9730636e-01 1.7334212e-01 -1.5519367e-03 
1.9732711e-01 1.7341262e-01 -1.0855521e-04 
1.9745864e-01 1.7338766e-01 -4.6497490e-03 
1.9709150e-01 1.7313823e-01 -1.3990391e-03 
1.9739673e-01 1.7339288e-01 -2.7281460e-03 
1.9741765e-01 1.7335373e-01 -4.3988521e-03 
1.9636273e-01 1.7236297e-01 -2.9081032e-03 
1.9639410e-01 1.7243594e-01 -1.6699872e-03 
1.9632372e-01 1.7240454e-01 -4.8013253e-04 
1.9631217e-01 1.7226563e-01 -4.2985012e-03 
1.9596647e-01 1.7205417e-01 -4.6407469e-04 
1.9754232e-01 1.7342779e-01 -5.7810983e-03 
1.9604965e-01 1.7199716e-01 -4.4497140e-03 
1.9545868e-01 1.7151387e-01 -1.5264562e-03 
1.9532716e-01 1.7142990e-01 -1.3442892e-04 
1.9491354e-01 1.7093553e-01 -2.6664736e-03 
1.9497797e-01 1.7093067e-01 -4.6406039e-03 
1.9480407e-01 1.7091571e-01 -7.0389855e-05 
1.9612694e-01 1.7205903e-01 -4.8711370e-03 
1.9611683e-01 1.7207421e-01 -4.1618305e-03 
1.9462647e-01 1.7068660e-01 -1.6403362e-03 
1.9458875e-01 1.7062517e-01 -2.3774239e-03 
1.9452119e-01 1.7054179e-01 -2.8792203e-03 
1.9448337e-01 1.7058454e-01 -4.5824633e-04 
1.9457278e-01 1.7064793e-01 -1.3242845e-03 
1.9469078e-01 1.7071502e-01 -2.7248685e-03 
1.9471297e-01 1.7067695e-01 -4.3832203e-03 
1.9384941e-01 1.6982855e-01 -4.2883079e-03 
1.9362459e-01 1.6970134e-01 -1.5024546e-03 
1.9349435e-01 1.6961859e-01 -1.1286359e-04 
1.9346753e-01 1.6958487e-01 -4.1575497e-04 
1.9359088e-01 1.6956364e-01 -4.4488320e-03 
1.9483535e-01 1.7074749e-01 -5.7642581e-03 
1.9269408e-01 1.6873631e-01 -2.8504245e-03 
1.9265808e-01 1.6878039e-01 -4.3684928e-04 
1.9251309e-01 1.6857734e-01 -2.2210435e-03 
1.9253762e-01 1.6851759e-01 -4.6301438e-03 
1.9232033e-01 1.6846144e-01 -3.0626514e-05 
1.9342592e-01 1.6938622e-01 -4.8581744e-03 
1.9341528e-01 1.6940089e-01 -4.1508735e-03 
1.9180456e-01 1.6790292e-01 -1.4805833e-03 