# vtk DataFile Version 4.0
vtk output
ASCII
DATASET UNSTRUCTURED_GRID
POINTS 6166 float
-4.3633327e-01 9.6409470e-01 4.4200001e+01 
-4.3633261e-01 9.6409082e-01 4.4079685e+01 
-3.2145375e-01 9.1276109e-01 4.4200001e+01 
-3.8566181e-01 8.4097892e-01 4.4200001e+01 
-3.3069235e-01 9.1895354e-01 4.4019413e+01 
-3.8473952e-01 8.3919770e-01 4.4024357e+01 
-4.3633196e-01 9.6408689e-01 4.3958702e+01 
-2.1293370e-01 8.4677851e-01 4.4200001e+01 
-2.9042658e-01 7.3813015e-01 4.4200001e+01 
-2.1019450e-01 8.4669626e-01 4.4077393e+01 
-2.8909999e-01 7.3605996e-01 4.4073399e+01 
-3.2963324e-01 9.1929907e-01 4.3898094e+01 
-3.8679782e-01 8.4179753e-01 4.3889645e+01 
-2.0740938e-01 8.4661204e-01 4.3952713e+01 
-4.3633130e-01 9.6408290e-01 4.3837040e+01 
-1.1677200e-01 7.7521002e-01 4.4200001e+01 
-2.8775173e-01 7.3395580e-01 4.3944717e+01 
-1.9365783e-01 6.6203654e-01 4.4200001e+01 
-1.1309985e-01 7.7540898e-01 4.4012005e+01 
-1.9181472e-01 6.5888047e-01 4.4006447e+01 
-3.2856464e-01 9.1964108e-01 4.3776085e+01 
-3.8823184e-01 8.4352189e-01 4.3765770e+01 
-2.0457739e-01 8.4652513e-01 4.3825886e+01 
-2.8638119e-01 7.3181647e-01 4.3813885e+01 
-4.3633065e-01 9.6407896e-01 4.3714680e+01 
-1.0911675e-01 7.7426714e-01 4.3886200e+01 
-2.1001574e-02 6.8269837e-01 4.4200001e+01 
-1.8902887e-01 6.5566909e-01 4.3876659e+01 
-7.8887597e-02 5.9015810e-01 4.4200001e+01 
-3.2748649e-01 9.1997939e-01 4.3653378e+01 
-3.9889076e-01 8.5876143e-01 4.3651733e+01 
-2.0169757e-01 8.4643483e-01 4.3696846e+01 
-7.2496021e-03 6.7325598e-01 4.3947758e+01 
-1.0504345e-01 7.7307969e-01 4.3758209e+01 
-2.8498772e-01 7.2964084e-01 4.3680840e+01 
-6.3224643e-02 5.7783771e-01 4.3940754e+01 
3.5808440e-02 6.2679136e-01 4.4056572e+01 
-1.8616955e-01 6.5238589e-01 4.3744686e+01 
-4.3632996e-01 9.6407503e-01 4.3591618e+01 
-9.8678423e-03 5.4892725e-01 4.4055367e+01 
-1.8652271e-02 6.8798620e-01 4.3834026e+01 
-7.9845116e-02 5.8636194e-01 4.3823372e+01 
8.7777540e-02 5.7885915e-01 4.4200001e+01 
5.3622175e-02 5.1732427e-01 4.4200001e+01 
-3.2639861e-01 9.2031354e-01 4.3529953e+01 
-3.9894739e-01 8.5844576e-01 4.3528313e+01 
-1.9876897e-01 8.4634024e-01 4.3565521e+01 
-1.0087753e-01 7.7184403e-01 4.3627972e+01 
-2.8357074e-01 7.2742778e-01 4.3545506e+01 
-1.8323407e-01 6.4902818e-01 4.3610458e+01 
-4.3632931e-01 9.6407109e-01 4.3467831e+01 
3.1033519e-03 6.6751039e-01 4.3691772e+01 
-5.3600248e-02 5.6906003e-01 4.3676846e+01 
1.2436585e-01 5.5082864e-01 4.3886215e+01 
1.7079005e-01 5.1095647e-01 4.4054855e+01 
1.4951277e-01 4.6697062e-01 4.4053665e+01 
1.0028158e-01 4.8915190e-01 4.3877911e+01 
-4.0513036e-01 8.6722642e-01 4.3405304e+01 
-3.2530096e-01 9.2064321e-01 4.3405800e+01 
-9.6616447e-02 7.7055699e-01 4.3495411e+01 
-8.4563000e-03 6.8258613e-01 4.3574005e+01 
-1.9579062e-01 8.4624058e-01 4.3431831e+01 
2.1753120e-01 4.7335833e-01 4.4200001e+01 
2.0360756e-01 4.4289169e-01 4.4200001e+01 
-1.8021962e-01 6.4559317e-01 4.3473904e+01 
-7.0636064e-02 5.7773441e-01 4.3555408e+01 
-2.8212959e-01 7.2517604e-01 4.3407806e+01 
-4.3632865e-01 9.6406716e-01 4.3343307e+01 
1.3810426e-01 5.4143524e-01 4.3628246e+01 
-3.2419339e-01 9.2096806e-01 4.3280907e+01 
-3.9903235e-01 8.5775709e-01 4.3279266e+01 
-9.2257597e-02 7.6921552e-01 4.3360443e+01 
1.1508528e-01 4.7804743e-01 4.3612068e+01 
-1.9276154e-01 8.4613472e-01 4.3295704e+01 
1.4013666e-02 6.6131532e-01 4.3426643e+01 
-1.7712323e-01 6.4207786e-01 4.3334946e+01 
-2.8066361e-01 7.2288430e-01 4.3267666e+01 
-4.3382257e-02 5.5983055e-01 4.3403778e+01 
-4.3632799e-01 9.6406323e-01 4.3218033e+01 
3.7877345e-01 3.8273901e-01 4.4200001e+01 
3.9076596e-01 3.7443376e-01 4.3993755e+01 
-3.2307580e-01 9.2128778e-01 4.3155251e+01 
-3.9906058e-01 8.5738426e-01 4.3153610e+01 
-8.7798268e-02 7.6781619e-01 4.3222996e+01 
1.9689407e-02 6.5803534e-01 4.3290459e+01 
-6.0862999e-02 5.6866169e-01 4.3278019e+01 
-1.8968078e-01 8.4602165e-01 4.3157055e+01 
-1.7394182e-01 6.3847917e-01 4.3193501e+01 
-4.3632734e-01 9.6405929e-01 4.3091995e+01 
4.0275589e-01 3.6612594e-01 4.3787510e+01 
1.2304078e-01 5.5709994e-01 4.3330139e+01 
-2.7917209e-01 7.2055119e-01 4.3125000e+01 
2.5336364e-01 4.4907436e-01 4.3468094e+01 
2.3670304e-01 4.1684708e-01 4.3469433e+01 
1.3086085e-01 4.6634668e-01 4.3336948e+01 
-3.8351217e-01 8.3473074e-01 4.3036392e+01 
-3.2194808e-01 9.2160189e-01 4.3028820e+01 
2.5518833e-02 6.5462554e-01 4.3151749e+01 
-8.3235659e-02 7.6635528e-01 4.3082981e+01 
4.1474071e-01 3.5781288e-01 4.3581264e+01 
-1.8654740e-01 8.4590012e-01 4.3015797e+01 
-3.2522827e-02 5.5011308e-01 4.3120937e+01 
-1.7067213e-01 6.3479382e-01 4.3049488e+01 
-4.3632668e-01 9.6405542e-01 4.2965172e+01 
-2.7765438e-01 7.1817529e-01 4.2979721e+01 
2.6620242e-01 4.4011977e-01 4.3261948e+01 
1.3584816e-02 6.7044950e-01 4.3025066e+01 
-3.2081014e-01 9.2191011e-01 4.2901604e+01 
-3.8160574e-01 8.3169121e-01 4.2902863e+01 
-7.8566879e-02 7.6482886e-01 4.2940315e+01 
-5.0480481e-02 5.5910730e-01 4.2990566e+01 
4.2671782e-01 3.4949207e-01 4.3375019e+01 
1.6821145e-01 5.2049083e-01 4.3083881e+01 
-1.8336046e-01 8.4576881e-01 4.2871841e+01 
-4.3632606e-01 9.6405160e-01 4.2837555e+01 
-1.6731077e-01 6.3101834e-01 4.2902817e+01 
1.4768846e-01 4.5400122e-01 4.3051926e+01 
-2.7610970e-01 7.1575516e-01 4.2831745e+01 
-3.1966189e-01 9.2221189e-01 4.2773579e+01 
-3.8560396e-01 8.3684862e-01 4.2767078e+01 
3.7660085e-02 6.4738947e-01 4.2866421e+01 
-7.3788933e-02 7.6323271e-01 4.2794899e+01 
4.3868470e-01 3.4116083e-01 4.3168777e+01 
-4.3632543e-01 9.6404779e-01 4.2709122e+01 
-2.0968946e-02 5.3986710e-01 4.2827656e+01 
-1.8011902e-01 8.4562629e-01 4.2725094e+01 
-1.6385415e-01 6.2714905e-01 4.2753403e+01 
-2.7453732e-01 7.1328926e-01 4.2680973e+01 
-3.1850323e-01 9.2250693e-01 4.2644733e+01 
-3.9907700e-01 8.5570478e-01 4.2643101e+01 
2.5504474e-02 6.6361672e-01 4.2734810e+01 
1.8471870e-01 5.0880390e-01 4.2796177e+01 
-6.8898737e-02 7.6156229e-01 4.2646645e+01 
-3.9438177e-02 5.4903054e-01 4.2692345e+01 
-4.3632481e-01 9.6404403e-01 4.2579861e+01 
4.5063871e-01 3.3281663e-01 4.2962532e+01 
1.6565691e-01 4.4095638e-01 4.2756321e+01 
-1.7682223e-01 8.4547096e-01 4.2575459e+01 
-1.6029853e-01 6.2318206e-01 4.2601143e+01 
-4.0415615e-01 8.6278629e-01 4.2516582e+01 
-3.1733403e-01 9.2279470e-01 4.2515053e+01 
-2.7293649e-01 7.1077597e-01 4.2527313e+01 
5.0482783e-02 6.3954860e-01 4.2569923e+01 
-4.3632418e-01 9.6404034e-01 4.2449757e+01 
-6.3893095e-02 7.5981271e-01 4.2495445e+01 
-8.6617703e-03 5.2904755e-01 4.2523201e+01 
-1.7346917e-01 8.4530097e-01 4.2422829e+01 
-1.5663996e-01 6.1911333e-01 4.2445942e+01 
3.0435190e-01 4.1341871e-01 4.2643494e+01 
4.6257737e-01 3.2445681e-01 4.2756287e+01 
-3.1615424e-01 9.2307472e-01 4.2384518e+01 
-3.9902648e-01 8.5475212e-01 4.2382885e+01 
-2.7130640e-01 7.0821363e-01 4.2370659e+01 
3.8079392e-02 6.5619886e-01 4.2433029e+01 
2.0230262e-01 4.9620378e-01 4.2497147e+01 
-4.3632355e-01 9.6403670e-01 4.2318787e+01 
-5.8768708e-02 7.5797862e-01 4.2341198e+01 
-2.7680276e-02 5.3838593e-01 4.2382599e+01 
1.8486446e-01 4.2715022e-01 4.2449394e+01 
-3.8436696e-01 8.3356136e-01 4.2264896e+01 
8.9545198e-02 5.3233254e-01 4.2382050e+01 
-3.3225983e-01 9.3122375e-01 4.2255634e+01 
-1.7005907e-01 8.4511453e-01 4.2267101e+01 
-1.5287429e-01 6.1493850e-01 4.2287693e+01 
4.7449806e-01 3.1607881e-01 4.2550037e+01 
-2.6964626e-01 7.0560038e-01 4.2210907e+01 
-4.3632296e-01 9.6403313e-01 4.2186939e+01 
6.4036883e-02 6.3103610e-01 4.2261456e+01 
-5.3522192e-02 7.5605446e-01 4.2183796e+01 
-3.7873057e-01 8.2541841e-01 4.2124020e+01 
-3.1376252e-01 9.2360973e-01 4.2120819e+01 
4.4639236e-03 5.1760370e-01 4.2206776e+01 
-1.6659111e-01 8.4490943e-01 4.2108162e+01 
-1.4899719e-01 6.1065292e-01 4.2126286e+01 
-4.3632239e-01 9.6402961e-01 4.2054195e+01 
4.8639825e-01 3.0768004e-01 4.2343792e+01 
-2.6795524e-01 7.0293444e-01 4.2047943e+01 
2.4746621e-01 4.6040925e-01 4.2191032e+01 
7.1105182e-02 6.2650448e-01 4.2102463e+01 
-3.1255043e-01 9.2386365e-01 4.1987617e+01 
-4.8150036e-02 7.5403398e-01 4.2023121e+01 
-1.5144684e-02 5.2712250e-01 4.2060505e+01 
-3.7995064e-01 8.2661813e-01 4.1980038e+01 
2.0541981e-01 4.1251117e-01 4.2130333e+01 
-1.6306458e-01 8.4468329e-01 4.1945896e+01 
-4.3632182e-01 9.6402621e-01 4.1920536e+01 
-1.4500406e-01 6.0625184e-01 4.1961609e+01 
1.3375351e-01 5.6370503e-01 4.1969833e+01 
-2.6623246e-01 7.0021385e-01 4.1881653e+01 
-3.1132740e-01 9.2410773e-01 4.1853493e+01 
-3.9880505e-01 8.5261923e-01 4.1851868e+01 
4.9827534e-01 2.9925787e-01 4.2137547e+01 
3.4194937e-01 3.8685825e-01 4.2025021e+01 
-4.2648647e-02 7.5191063e-01 4.1859051e+01 
-2.5401810e-01 7.9503769e-01 4.1808533e+01 
1.8480448e-02 5.0547802e-01 4.1877510e+01 
-4.3632126e-01 9.6402287e-01 4.1785946e+01 
-1.5947884e-01 8.4443361e-01 4.1780174e+01 
-1.4089009e-01 6.0172999e-01 4.1793541e+01 
-3.1009343e-01 9.2434150e-01 4.1718426e+01 
-4.0306881e-01 8.5845691e-01 4.1716179e+01 
8.5861288e-02 6.1683756e-01 4.1774368e+01 
-2.6447710e-01 6.9743657e-01 4.1711910e+01 
3.0427080e-01 4.1638452e-01 4.1839512e+01 
2.6751360e-01 3.7833902e-01 4.1830902e+01 
5.1012677e-01 2.9080975e-01 4.1931297e+01 
-3.7014309e-02 7.4967718e-01 4.1691463e+01 
-4.3632072e-01 9.6401966e-01 4.1650398e+01 
2.5847588e-02 4.9913955e-01 4.1707767e+01 
-1.5583332e-01 8.4415752e-01 4.1610870e+01 
-3.8322043e-01 8.2981020e-01 4.1595791e+01 
-3.0884841e-01 9.2456430e-01 4.1582397e+01 
-1.3665022e-01 5.9708190e-01 4.1621960e+01 
9.3565010e-02 6.1167872e-01 4.1605015e+01 
-2.6268822e-01 6.9460052e-01 4.1538593e+01 
-4.3632022e-01 9.6401656e-01 4.1513885e+01 
-3.1243213e-02 7.4732590e-01 4.1520226e+01 
2.7603787e-01 3.7115356e-01 4.1624012e+01 
2.8505871e-01 4.3281260e-01 4.1611507e+01 
5.2195001e-01 2.8233302e-01 4.1725052e+01 
3.3468332e-02 4.9260557e-01 4.1534447e+01 
-3.9853087e-01 8.5081697e-01 4.1443768e+01 
-3.2560509e-01 9.3245691e-01 4.1443577e+01 
-1.5212752e-01 8.4385180e-01 4.1437847e+01 
-1.3227913e-01 5.9230179e-01 4.1446728e+01 
-4.3631971e-01 9.6401358e-01 4.1376381e+01 
[...]
POINT_DATA 6166
FIELD FieldData 5
DISPLACEMENT 3 6166  float
2.3693979e+00 2.1654170e+00 -1.9300513e-01 
2.3555124e+00 2.1514277e+00 -1.9137919e-01 
2.3690016e+00 2.1650517e+00 -2.0030525e-01 
2.3699558e+00 2.1659391e+00 -1.8454941e-01 
2.3481772e+00 2.1440704e+00 -1.9751818e-01 
2.3496916e+00 2.1455235e+00 -1.8207589e-01 
2.3415499e+00 2.1373613e+00 -1.8974416e-01 
2.3687546e+00 2.1648254e+00 -2.0516874e-01 
2.3700666e+00 2.1660464e+00 -1.8359476e-01 
2.3545871e+00 2.1505537e+00 -2.0381899e-01 
2.3554618e+00 2.1513324e+00 -1.8179691e-01 
2.3341660e+00 2.1299555e+00 -1.9604136e-01 
2.3341396e+00 2.1298559e+00 -1.8032041e-01 
2.3401794e+00 2.1360402e+00 -2.0244616e-01 
2.3275089e+00 2.1232157e+00 -1.8809992e-01 
2.3686314e+00 2.1647143e+00 -2.0795606e-01 
2.3406169e+00 2.1363764e+00 -1.7996962e-01 
2.3699722e+00 2.1659622e+00 -1.8592627e-01 
2.3469090e+00 2.1428320e+00 -2.0586325e-01 
2.3476450e+00 2.1434679e+00 -1.8315738e-01 
2.3200760e+00 2.1157613e+00 -1.9455582e-01 
2.3198407e+00 2.1154506e+00 -1.7868185e-01 
2.3255243e+00 2.1212773e+00 -2.0104933e-01 
2.3255246e+00 2.1211712e+00 -1.7811215e-01 
2.3133886e+00 2.1089902e+00 -1.8644635e-01 
2.3323715e+00 2.1281874e+00 -2.0449054e-01 
2.3686633e+00 2.1647480e+00 -2.0826438e-01 
2.3326707e+00 2.1283817e+00 -1.8135259e-01 
2.3697264e+00 2.1657376e+00 -1.9082613e-01 
2.3059056e+00 2.1014860e+00 -1.9306131e-01 
2.3066411e+00 2.1021554e+00 -1.7768179e-01 
2.3106141e+00 2.1062574e+00 -1.9962756e-01 
2.3395288e+00 2.1353979e+00 -2.0534700e-01 
2.3175821e+00 2.1132894e+00 -2.0309342e-01 
2.3101768e+00 2.1057091e+00 -1.7622371e-01 
2.3397915e+00 2.1355813e+00 -1.8770063e-01 
2.3521369e+00 2.1480985e+00 -2.0638971e-01 
2.3174448e+00 2.1130424e+00 -1.7951897e-01 
2.2991872e+00 2.0946832e+00 -1.8478343e-01 
2.3528714e+00 2.1487715e+00 -1.9205043e-01 
2.3263726e+00 2.1221454e+00 -2.0420538e-01 
2.3262935e+00 2.1219783e+00 -1.8518642e-01 
2.3686907e+00 2.1647780e+00 -2.0875846e-01 
2.3693683e+00 2.1654088e+00 -1.9766331e-01 
2.2916536e+00 2.0871294e+00 -1.9155793e-01 
2.2924011e+00 2.0878098e+00 -1.7597204e-01 
2.2954407e+00 2.0909727e+00 -1.9817995e-01 
2.3025336e+00 2.0981305e+00 -2.0167078e-01 
2.2945662e+00 2.0899820e+00 -1.7430317e-01 
2.3019593e+00 2.0974419e+00 -1.7765525e-01 
2.2849033e+00 2.0802939e+00 -1.8311052e-01 
2.3099587e+00 2.1056099e+00 -2.0241585e-01 
2.3093328e+00 2.1048968e+00 -1.8422717e-01 
2.3324351e+00 2.1282558e+00 -2.0548616e-01 
2.3518772e+00 2.1478467e+00 -2.0849197e-01 
2.3522034e+00 2.1481400e+00 -2.0090719e-01 
2.3320878e+00 2.1278598e+00 -1.9542544e-01 
2.2781856e+00 2.0734906e+00 -1.7461802e-01 
2.2773185e+00 2.0726891e+00 -1.9004484e-01 
2.2872179e+00 2.0827022e+00 -2.0022166e-01 
2.2963364e+00 2.0918880e+00 -2.0124154e-01 
2.2799957e+00 2.0754149e+00 -1.9670548e-01 
2.3685894e+00 2.1646888e+00 -2.1148114e-01 
2.3689051e+00 2.1649826e+00 -2.0633259e-01 
2.2862062e+00 2.0815723e+00 -1.7576148e-01 
2.2953703e+00 2.0908263e+00 -1.8162875e-01 
2.2786841e+00 2.0739825e+00 -1.7235056e-01 
2.2705362e+00 2.0658209e+00 -1.8142860e-01 
2.3026395e+00 2.0982401e+00 -2.0249528e-01 
2.2628996e+00 2.0581656e+00 -1.8852343e-01 
2.2636721e+00 2.0588689e+00 -1.7252171e-01 
2.2716262e+00 2.0669968e+00 -1.9874489e-01 
2.3013880e+00 2.0969336e+00 -1.9225328e-01 
2.2642710e+00 2.0595763e+00 -1.9520287e-01 
2.2793362e+00 2.0747621e+00 -1.9937322e-01 
2.2701778e+00 2.0654254e+00 -1.7383666e-01 
2.2625225e+00 2.0577013e+00 -1.7036356e-01 
2.2778203e+00 2.0731518e+00 -1.8064883e-01 
2.2560844e+00 2.0512633e+00 -1.7973650e-01 
2.3681686e+00 2.1643026e+00 -2.1956915e-01 
2.3443451e+00 2.1403022e+00 -2.1720183e-01 
2.2483952e+00 2.0435553e+00 -1.8699226e-01 
2.2491810e+00 2.0442712e+00 -1.7078075e-01 
2.2557502e+00 2.0510061e+00 -1.9723938e-01 
2.2636101e+00 2.0589209e+00 -1.9780694e-01 
2.2633646e+00 2.0585852e+00 -1.7796151e-01 
2.2482574e+00 2.0434475e+00 -1.9367078e-01 
2.2538655e+00 2.0489936e+00 -1.7188004e-01 
2.2415464e+00 2.0366199e+00 -1.7803463e-01 
2.3205216e+00 2.1163025e+00 -2.1483380e-01 
2.2682276e+00 2.0635729e+00 -1.9854759e-01 
2.2460728e+00 2.0411315e+00 -1.6834265e-01 
2.2840569e+00 2.0795312e+00 -2.0290703e-01 
2.2845576e+00 2.0800095e+00 -1.9725701e-01 
2.2696197e+00 2.0649321e+00 -1.8899974e-01 
2.2357218e+00 2.0307109e+00 -1.6836508e-01 
2.2338042e+00 2.0288599e+00 -1.8545045e-01 
2.2475951e+00 2.0427904e+00 -1.9621019e-01 
2.2395809e+00 2.0347209e+00 -1.9570436e-01 
2.2966998e+00 2.0923052e+00 -2.1246444e-01 
2.2319462e+00 2.0270202e+00 -1.9211021e-01 
2.2451878e+00 2.0402820e+00 -1.7696103e-01 
2.2372591e+00 2.0322676e+00 -1.6988933e-01 
2.2269216e+00 2.0218897e+00 -1.7632250e-01 
2.2293251e+00 2.0242624e+00 -1.6628630e-01 
2.2602508e+00 2.0555501e+00 -2.0056210e-01 
2.2329502e+00 2.0280411e+00 -1.9495977e-01 
2.2191250e+00 2.0140774e+00 -1.8389955e-01 
2.2203331e+00 2.0152118e+00 -1.6643302e-01 
2.2231088e+00 2.0181322e+00 -1.9413823e-01 
2.2302077e+00 2.0251892e+00 -1.7417820e-01 
2.2728820e+00 2.0683103e+00 -2.1009135e-01 
2.2397830e+00 2.0349247e+00 -1.9618434e-01 
2.2153277e+00 2.0102844e+00 -1.9051774e-01 
2.2122071e+00 2.0070710e+00 -1.7459968e-01 
2.2203510e+00 2.0152383e+00 -1.6786662e-01 
2.2367170e+00 2.0317924e+00 -1.8566568e-01 
2.2122700e+00 2.0070868e+00 -1.6419393e-01 
2.2043562e+00 1.9992056e+00 -1.8233825e-01 
2.2046690e+00 1.9994373e+00 -1.6474371e-01 
2.2146630e+00 2.0096242e+00 -1.9291835e-01 
2.2063248e+00 2.0012305e+00 -1.9253983e-01 
2.2490654e+00 2.0443194e+00 -2.0771775e-01 
2.1974030e+00 1.9921643e+00 -1.7286794e-01 
2.2113640e+00 2.0062180e+00 -1.7315684e-01 
2.1983924e+00 1.9932320e+00 -1.8889232e-01 
2.2031295e+00 1.9978966e+00 -1.6580759e-01 
2.1948996e+00 1.9895947e+00 -1.6206570e-01 
2.1894987e+00 1.9842454e+00 -1.8076622e-01 
2.1903355e+00 1.9850078e+00 -1.6371149e-01 
2.1994569e+00 1.9943120e+00 -1.9162266e-01 
2.2065821e+00 2.0014887e+00 -1.9285081e-01 
2.1892188e+00 1.9840069e+00 -1.9090685e-01 
2.1958253e+00 1.9905658e+00 -1.7027250e-01 
2.1825104e+00 1.9771689e+00 -1.7112768e-01 
2.2252591e+00 2.0203433e+00 -2.0534383e-01 
2.2026067e+00 1.9974409e+00 -1.8224382e-01 
2.1811309e+00 1.9758544e+00 -1.8723331e-01 
2.1855888e+00 1.9802341e+00 -1.6371652e-01 
2.1757419e+00 1.9703170e+00 -1.6224845e-01 
2.1745508e+00 1.9691987e+00 -1.7918675e-01 
2.1772046e+00 1.9717772e+00 -1.5989819e-01 
2.1804662e+00 1.9751906e+00 -1.8948591e-01 
2.1675258e+00 1.9620833e+00 -1.6937579e-01 
2.1717837e+00 1.9664549e+00 -1.8923935e-01 
2.1762769e+00 1.9708900e+00 -1.6923507e-01 
2.1635332e+00 1.9581399e+00 -1.8553944e-01 
2.1677201e+00 1.9622437e+00 -1.6158654e-01 
2.1888788e+00 1.9836739e+00 -1.9351988e-01 
2.2014639e+00 1.9963830e+00 -2.0296881e-01 
2.1595097e+00 1.9540560e+00 -1.7759664e-01 
2.1603725e+00 1.9548415e+00 -1.6011679e-01 
2.1591733e+00 1.9536254e+00 -1.5769127e-01 
2.1646647e+00 1.9592856e+00 -1.8814357e-01 
2.1721020e+00 1.9667737e+00 -1.8938771e-01 
2.1524484e+00 1.9469060e+00 -1.6761564e-01 
2.1540036e+00 1.9485583e+00 -1.8753746e-01 
2.1601460e+00 1.9546466e+00 -1.6624299e-01 
2.1672168e+00 1.9618132e+00 -1.7873381e-01 
2.1468477e+00 1.9412240e+00 -1.5777320e-01 
2.1593432e+00 1.9538925e+00 -1.7903545e-01 
2.1447265e+00 1.9391716e+00 -1.7494920e-01 
2.1455877e+00 1.9400779e+00 -1.8380950e-01 
2.1495049e+00 1.9439101e+00 -1.5942246e-01 
2.1776791e+00 1.9724323e+00 -2.0058781e-01 
2.1407950e+00 1.9351282e+00 -1.5544745e-01 
2.1372797e+00 1.9316403e+00 -1.6584566e-01 
2.1449206e+00 1.9394113e+00 -1.8590607e-01 
2.1358716e+00 1.9303091e+00 -1.8579668e-01 
2.1306620e+00 1.9249357e+00 -1.5559548e-01 
2.1291525e+00 1.9235033e+00 -1.7438249e-01 
2.1398406e+00 1.9342159e+00 -1.6518670e-01 
2.1272848e+00 1.9216592e+00 -1.8204467e-01 
2.1309371e+00 1.9252248e+00 -1.5721712e-01 
2.1220167e+00 1.9162804e+00 -1.6406402e-01 
2.1539071e+00 1.9485035e+00 -1.9820683e-01 
2.1220591e+00 1.9162747e+00 -1.5316199e-01 
2.1368186e+00 1.9312636e+00 -1.8632729e-01 
2.1266186e+00 1.9209907e+00 -1.8405823e-01 
2.1138303e+00 1.9080895e+00 -1.7276107e-01 
2.1173747e+00 1.9116971e+00 -1.8401517e-01 
2.1230781e+00 1.9173434e+00 -1.6208145e-01 
2.1141064e+00 1.9082795e+00 -1.5367140e-01 
2.1304600e+00 1.9248192e+00 -1.7512929e-01 
2.1086123e+00 1.9028724e+00 -1.8023872e-01 
2.1066546e+00 1.9008266e+00 -1.6227080e-01 
2.1120079e+00 1.9061809e+00 -1.5497854e-01 
2.1114030e+00 1.9056826e+00 -1.8221968e-01 
2.1029565e+00 1.8970585e+00 -1.5083776e-01 
2.0984125e+00 1.8925818e+00 -1.7112666e-01 
2.0993218e+00 1.8934107e+00 -1.5280394e-01 
2.1301603e+00 1.9246082e+00 -1.9582613e-01 
2.1176274e+00 1.9119606e+00 -1.8645571e-01 
2.0985055e+00 1.8927149e+00 -1.8219265e-01 
2.0937979e+00 1.8879018e+00 -1.6221182e-01 
2.1019747e+00 1.8961198e+00 -1.6101047e-01 
2.0912006e+00 1.8852855e+00 -1.6046974e-01 
2.0895634e+00 1.8837154e+00 -1.7838635e-01 
2.0927091e+00 1.8867689e+00 -1.5270694e-01 
2.0829005e+00 1.8769838e+00 -1.6948324e-01 
2.0837348e+00 1.8777400e+00 -1.5118875e-01 
2.0888937e+00 1.8830408e+00 -1.8022475e-01 
2.0834773e+00 1.8774714e+00 -1.4847566e-01 
2.0963452e+00 1.8905448e+00 -1.8305294e-01 
2.0958710e+00 1.8900332e+00 -1.7432179e-01 
2.1064239e+00 1.9007212e+00 -1.9343580e-01 
2.0792561e+00 1.8733562e+00 -1.8032692e-01 
2.0756509e+00 1.8696529e+00 -1.5866461e-01 
2.0824838e+00 1.8765209e+00 -1.5887941e-01 
2.0701277e+00 1.8641731e+00 -1.7649522e-01 
2.0700016e+00 1.8639300e+00 -1.4857568e-01 
2.0672998e+00 1.8613011e+00 -1.6782703e-01 
2.0730252e+00 1.8669819e+00 -1.5038837e-01 
2.0694582e+00 1.8634976e+00 -1.7825013e-01 
2.0636160e+00 1.8575050e+00 -1.4607015e-01 
2.0600154e+00 1.8539321e+00 -1.5685068e-01 
2.0596080e+00 1.8536065e+00 -1.7841764e-01 
2.0721238e+00 1.8661544e+00 -1.7171769e-01 
2.0701931e+00 1.8642436e+00 -1.7969172e-01 
2.0827196e+00 1.8768793e+00 -1.9104557e-01 
2.0626044e+00 1.8565391e+00 -1.5671219e-01 
2.0525482e+00 1.8463855e+00 -1.4723028e-01 
2.0514624e+00 1.8453737e+00 -1.6496393e-01 
2.0502877e+00 1.8442369e+00 -1.7456523e-01 
2.0529523e+00 1.8468094e+00 -1.4803796e-01 
2.0442772e+00 1.8381170e+00 -1.5502188e-01 
2.0525434e+00 1.8464969e+00 -1.7626296e-01 
2.0433545e+00 1.8371459e+00 -1.4362618e-01 
2.0395560e+00 1.8334578e+00 -1.7646506e-01 
2.0358088e+00 1.8296564e+00 -1.6449460e-01 
2.0367572e+00 1.8305254e+00 -1.4535159e-01 
2.0423279e+00 1.8361669e+00 -1.5451396e-01 
2.0495124e+00 1.8434329e+00 -1.7000924e-01 
2.0590520e+00 1.8530847e+00 -1.8865684e-01 
2.0300398e+00 1.8238945e+00 -1.7259057e-01 
2.0453825e+00 1.8393133e+00 -1.7780779e-01 
2.0284402e+00 1.8222128e+00 -1.5317865e-01 
2.0324748e+00 1.8262396e+00 -1.4564797e-01 
2.0316811e+00 1.8255395e+00 -1.7408332e-01 
2.0199118e+00 1.8136953e+00 -1.6280897e-01 
2.0208712e+00 1.8145796e+00 -1.4346433e-01 
2.0226836e+00 1.8163861e+00 -1.4113750e-01 
2.0190842e+00 1.8128964e+00 -1.7446786e-01 
2.0216410e+00 1.8153932e+00 -1.5228237e-01 
2.0125048e+00 1.8062180e+00 -1.5133385e-01 
2.0269072e+00 1.8207254e+00 -1.6682735e-01 
2.0354247e+00 1.8293418e+00 -1.8626484e-01 
2.0093632e+00 1.8031341e+00 -1.7057054e-01 
2.0115783e+00 1.8052611e+00 -1.4321738e-01 
2.0224495e+00 1.8162804e+00 -1.7567883e-01 
2.0039189e+00 1.7976402e+00 -1.6111250e-01 
2.0048909e+00 1.7985382e+00 -1.4157021e-01 
2.0099304e+00 1.8037003e+00 -1.7185862e-01 
2.0015869e+00 1.7952133e+00 -1.3860503e-01 
1.9964730e+00 1.7901258e+00 -1.4948466e-01 
1.9981765e+00 1.7919108e+00 -1.7242298e-01 
2.0005281e+00 1.7942026e+00 -1.5001655e-01 
1.9878322e+00 1.7814986e+00 -1.5940911e-01 
1.9888119e+00 1.7823992e+00 -1.3966218e-01 
1.9882436e+00 1.7819438e+00 -1.6850685e-01 
2.0118413e+00 1.8056545e+00 -1.8387099e-01 
1.9902496e+00 1.7838624e+00 -1.4074609e-01 
2.0002222e+00 1.7939346e+00 -1.6321784e-01 
1.9997009e+00 1.7934428e+00 -1.7360386e-01 
1.9803405e+00 1.7739415e+00 -1.4761713e-01 
1.9878225e+00 1.7815143e+00 -1.6959208e-01 
1.9800513e+00 1.7736137e+00 -1.3603279e-01 
1.9768236e+00 1.7704901e+00 -1.7032552e-01 
1.9821852e+00 1.7758067e+00 -1.4956857e-01 
1.9716345e+00 1.7652562e+00 -1.5769462e-01 
1.9726312e+00 1.7661788e+00 -1.3776141e-01 
1.9666724e+00 1.7603121e+00 -1.6638930e-01 
1.9882967e+00 1.7820172e+00 -1.8149410e-01 
1.9641075e+00 1.7576733e+00 -1.4575946e-01 
1.9684819e+00 1.7620342e+00 -1.3823423e-01 
1.9766185e+00 1.7702826e+00 -1.7120256e-01 
1.9745561e+00 1.7681894e+00 -1.6231637e-01 
1.9656256e+00 1.7592506e+00 -1.6732447e-01 
1.9553462e+00 1.7489325e+00 -1.5598102e-01 
1.9563452e+00 1.7498605e+00 -1.3584672e-01 
1.9580746e+00 1.7515819e+00 -1.3340890e-01 
1.9550133e+00 1.7486243e+00 -1.6817619e-01 
1.9601734e+00 1.7537402e+00 -1.4824399e-01 
1.9477700e+00 1.7413007e+00 -1.4388616e-01 
1.9446468e+00 1.7382336e+00 -1.6422254e-01 
1.9450208e+00 1.7385498e+00 -1.4557290e-01 
1.9648029e+00 1.7584542e+00 -1.7911419e-01 
1.9462601e+00 1.7397653e+00 -1.3568167e-01 
1.9537848e+00 1.7473834e+00 -1.6848518e-01 
1.9389553e+00 1.7325102e+00 -1.5423891e-01 
1.9399580e+00 1.7334373e+00 -1.3391748e-01 
1.9432343e+00 1.7368085e+00 -1.6506937e-01 
1.9512069e+00 1.7447811e+00 -1.6067566e-01 
1.9356319e+00 1.7290990e+00 -1.3074826e-01 
1.9313363e+00 1.7248356e+00 -1.4199315e-01 
1.9327288e+00 1.7262974e+00 -1.6597767e-01 
1.9373804e+00 1.7309079e+00 -1.4596872e-01 
1.9224553e+00 1.7159854e+00 -1.5250050e-01 
1.9234803e+00 1.7169356e+00 -1.3198934e-01 
1.9221202e+00 1.7156806e+00 -1.6199778e-01 
1.9413468e+00 1.7349386e+00 -1.7673531e-01 
1.9235672e+00 1.7170410e+00 -1.3308945e-01 
1.9308449e+00 1.7243967e+00 -1.6608895e-01 
1.9147952e+00 1.7082796e+00 -1.4010653e-01 
1.9205537e+00 1.7140962e+00 -1.6276552e-01 
1.9283090e+00 1.7218457e+00 -1.5936679e-01 
1.9110554e+00 1.7045676e+00 -1.4718130e-01 
1.9127114e+00 1.7061585e+00 -1.2803006e-01 
1.9099514e+00 1.7034962e+00 -1.6372009e-01 
1.9058571e+00 1.6993828e+00 -1.5075444e-01 
1.9138330e+00 1.7073386e+00 -1.4408286e-01 
1.9049437e+00 1.6983856e+00 -1.2898673e-01 
1.8991067e+00 1.6926513e+00 -1.5972841e-01 
1.8981452e+00 1.6916270e+00 -1.3820437e-01 
1.9179599e+00 1.7115188e+00 -1.7435598e-01 
1.9004418e+00 1.6939088e+00 -1.3167509e-01 
1.9071281e+00 1.7006608e+00 -1.6336785e-01 
1.8982803e+00 1.6918042e+00 -1.6064380e-01 
1.9061301e+00 1.6996548e+00 -1.5924907e-01 
1.8892076e+00 1.6827331e+00 -1.4892752e-01 
1.8902417e+00 1.6836892e+00 -1.2813117e-01 
1.8892996e+00 1.6827397e+00 -1.2527166e-01 
1.8867775e+00 1.6803194e+00 -1.6141233e-01 
1.8815107e+00 1.6749921e+00 -1.3631360e-01 
1.8857679e+00 1.6792672e+00 -1.4139928e-01 
1.8757713e+00 1.6693242e+00 -1.5742293e-01 
1.8946540e+00 1.6882024e+00 -1.7197263e-01 
1.8726257e+00 1.6661490e+00 -1.4705989e-01 
1.8736678e+00 1.6671145e+00 -1.2625615e-01 
1.8770447e+00 1.6705085e+00 -1.2762281e-01 
1.8828539e+00 1.6763760e+00 -1.5689395e-01 
1.8787427e+00 1.6722754e+00 -1.6057824e-01 
1.8709688e+00 1.6645060e+00 -1.5783018e-01 
1.8649870e+00 1.6584724e+00 -1.3444455e-01 
1.8659941e+00 1.6594424e+00 -1.2252212e-01 
1.8636407e+00 1.6571943e+00 -1.5913126e-01 
1.8641709e+00 1.6576737e+00 -1.3487950e-01 
1.8561666e+00 1.6497021e+00 -1.4519879e-01 
1.8563526e+00 1.6498042e+00 -1.2334991e-01 
1.8528185e+00 1.6463846e+00 -1.5515111e-01 
1.8713994e+00 1.6649559e+00 -1.6959646e-01 
1.8539122e+00 1.6473988e+00 -1.2478921e-01 
1.8485780e+00 1.6420805e+00 -1.3258180e-01 
1.8514211e+00 1.6449705e+00 -1.5598935e-01 
1.8578714e+00 1.6514040e+00 -1.4841631e-01 
1.8592337e+00 1.6527930e+00 -1.6058409e-01 
1.8498821e+00 1.6434340e+00 -1.5578566e-01 
1.8430315e+00 1.6365075e+00 -1.1984032e-01 
1.8398085e+00 1.6333671e+00 -1.4334586e-01 
1.8408519e+00 1.6343319e+00 -1.2256031e-01 
1.8408848e+00 1.6344532e+00 -1.5687193e-01 
1.8412391e+00 1.6347692e+00 -1.3183933e-01 
1.8322852e+00 1.6258192e+00 -1.3074480e-01 
1.8302442e+00 1.6238379e+00 -1.5289836e-01 
1.8482068e+00 1.6417904e+00 -1.6725275e-01 
1.8311332e+00 1.6246569e+00 -1.2201974e-01 
1.8265557e+00 1.6200629e+00 -1.1972672e-01 
1.8235862e+00 1.6171765e+00 -1.4150344e-01 
1.8288648e+00 1.6224378e+00 -1.5377331e-01 
1.8360757e+00 1.6296601e+00 -1.5824312e-01 
1.8364507e+00 1.6300189e+00 -1.5220051e-01 
1.8204201e+00 1.6139381e+00 -1.1721063e-01 
1.8281423e+00 1.6216989e+00 -1.4087377e-01 
1.8184991e+00 1.6121097e+00 -1.5464176e-01 
1.8161217e+00 1.6096827e+00 -1.2891945e-01 
1.8235310e+00 1.6171138e+00 -1.5308273e-01 
1.8186617e+00 1.6122369e+00 -1.2887029e-01 
1.8074702e+00 1.6010901e+00 -1.3968198e-01 
1.8080322e+00 1.6016808e+00 -1.5068765e-01 
1.8250438e+00 1.6186525e+00 -1.6486730e-01 
1.8087020e+00 1.6022812e+00 -1.1931061e-01 
1.8056796e+00 1.5992346e+00 -1.1713176e-01 
1.8066797e+00 1.6003078e+00 -1.5159462e-01 
1.8000501e+00 1.5936642e+00 -1.2711687e-01 
1.8129557e+00 1.6065664e+00 -1.5590034e-01 
1.8133219e+00 1.6069189e+00 -1.4986135e-01 
1.7981490e+00 1.5917372e+00 -1.1463216e-01 
1.7964792e+00 1.5901548e+00 -1.5244368e-01 
1.7914627e+00 1.5851411e+00 -1.3786079e-01 
1.7925028e+00 1.5861012e+00 -1.1715847e-01 
1.8013374e+00 1.5949624e+00 -1.3635764e-01 
1.8004906e+00 1.5941297e+00 -1.5069899e-01 
1.7964299e+00 1.5900732e+00 -1.2597181e-01 
1.7889866e+00 1.5826366e+00 -1.2585486e-01 
1.7861918e+00 1.5799164e+00 -1.4850357e-01 
1.7841065e+00 1.5777745e+00 -1.2533486e-01 
1.8019549e+00 1.5956035e+00 -1.6249181e-01 
1.7845044e+00 1.5781356e+00 -1.1343171e-01 
1.7866172e+00 1.5802695e+00 -1.1666585e-01 
1.7848637e+00 1.5785631e+00 -1.4945127e-01 
1.7899275e+00 1.5836080e+00 -1.5356085e-01 
1.7902826e+00 1.5839543e+00 -1.4753446e-01 
1.7755855e+00 1.5693340e+00 -1.3605703e-01 
1.7766033e+00 1.5702708e+00 -1.1540134e-01 
1.7754365e+00 1.5691551e+00 -1.2981416e-01 
1.7762096e+00 1.5698860e+00 -1.1212175e-01 
1.7756473e+00 1.5693749e+00 -1.3276470e-01 
1.7748390e+00 1.5685910e+00 -1.5026760e-01 
1.7783595e+00 1.5720834e+00 -1.3408454e-01 
1.7775385e+00 1.5712656e+00 -1.4832231e-01 
1.7745489e+00 1.5682781e+00 -1.2315852e-01 
1.7682877e+00 1.5620279e+00 -1.2355760e-01 
1.7686731e+00 1.5623785e+00 -1.1169004e-01 
1.7647148e+00 1.5585319e+00 -1.4632751e-01 
1.7624007e+00 1.5561399e+00 -1.1460869e-01 
1.7648553e+00 1.5586120e+00 -1.1407048e-01 
1.7789568e+00 1.5726869e+00 -1.6012256e-01 
1.7621621e+00 1.5559312e+00 -1.2298732e-01 
1.7598270e+00 1.5536435e+00 -1.3426362e-01 
1.7634225e+00 1.5572206e+00 -1.4736077e-01 
1.7669884e+00 1.5607744e+00 -1.5123048e-01 
1.7673339e+00 1.5611142e+00 -1.4521702e-01 
1.7525918e+00 1.5464144e+00 -1.2182089e-01 
1.7546204e+00 1.5484116e+00 -1.0966035e-01 
1.7535280e+00 1.5473917e+00 -1.4811939e-01 
1.7529974e+00 1.5468397e+00 -1.2036774e-01 
1.7554671e+00 1.5492978e+00 -1.3184470e-01 
1.7546694e+00 1.5485082e+00 -1.4597352e-01 
1.7441959e+00 1.5380988e+00 -1.3250056e-01 
1.7457891e+00 1.5396595e+00 -1.2207509e-01 
1.7452003e+00 1.5390400e+00 -1.1196225e-01 
1.7435821e+00 1.5375091e+00 -1.4420591e-01 
1.7434332e+00 1.5373024e+00 -1.1153759e-01 
1.7560552e+00 1.5498931e+00 -1.5775576e-01 
1.7423197e+00 1.5362279e+00 -1.4527701e-01 
1.7370108e+00 1.5309286e+00 -1.2008485e-01 
1.7373908e+00 1.5312732e+00 -1.0822487e-01 
1.7330457e+00 1.5270017e+00 -1.2927483e-01 
1.7325931e+00 1.5265706e+00 -1.4600681e-01 
1.7333474e+00 1.5272640e+00 -1.0725333e-01 
1.7441459e+00 1.5380492e+00 -1.4890431e-01 
1.7444826e+00 1.5383811e+00 -1.4290269e-01 
1.7308049e+00 1.5247633e+00 -1.2036934e-01 
1.7297856e+00 1.5237701e+00 -1.2656237e-01 
1.7286651e+00 1.5226700e+00 -1.3074417e-01 
1.7296723e+00 1.5236168e+00 -1.1026229e-01 
1.7317629e+00 1.5257370e+00 -1.1766014e-01 
1.7326554e+00 1.5266298e+00 -1.2958975e-01 
1.7318785e+00 1.5258551e+00 -1.4361988e-01 
1.7228048e+00 1.5168626e+00 -1.4210355e-01 
1.7215395e+00 1.5155716e+00 -1.1837682e-01 
1.7219205e+00 1.5159171e+00 -1.0653468e-01 
1.7223526e+00 1.5163739e+00 -1.0907426e-01 
1.7215500e+00 1.5155883e+00 -1.4325328e-01 
1.7332405e+00 1.5272045e+00 -1.5539224e-01 
1.7132518e+00 1.5073701e+00 -1.2900548e-01 
1.7142662e+00 1.5083233e+00 -1.0858406e-01 
1.7125708e+00 1.5066720e+00 -1.2354323e-01 
1.7119915e+00 1.5061146e+00 -1.4392552e-01 
1.7123978e+00 1.5064697e+00 -1.0487711e-01 
1.7213770e+00 1.5154214e+00 -1.4658068e-01 
1.7217067e+00 1.5157471e+00 -1.4059356e-01 
1.7061810e+00 1.5003299e+00 -1.1670119e-01 