# vtk DataFile Version 4.0
vtk output
ASCII
DATASET UNSTRUCTURED_GRID
POINTS 6166 float
-4.3633327e-01 9.6409470e-01 4.4200001e+01 
-4.3633261e-01 9.6409082e-01 4.4079685e+01 
-3.2145375e-01 9.1276109e-01 4.4200001e+01 
-3.8566181e-01 8.4097892e-01 4.4200001e+01 
-3.3069235e-01 9.1895354e-01 4.4019413e+01 
-3.8473952e-01 8.3919770e-01 4.4024357e+01 
-4.3633196e-01 9.6408689e-01 4.3958702e+01 
-2.1293370e-01 8.4677851e-01 4.4200001e+01 
-2.9042658e-01 7.3813015e-01 4.4200001e+01 
-2.1019450e-01 8.4669626e-01 4.4077393e+01 
-2.8909999e-01 7.3605996e-01 4.4073399e+01 
-3.2963324e-01 9.1929907e-01 4.3898094e+01 
-3.8679782e-01 8.4179753e-01 4.3889645e+01 
-2.0740938e-01 8.4661204e-01 4.3952713e+01 
-4.3633130e-01 9.6408290e-01 4.3837040e+01 
-1.1677200e-01 7.7521002e-01 4.4200001e+01 
-2.8775173e-01 7.3395580e-01 4.3944717e+01 
-1.9365783e-01 6.6203654e-01 4.4200001e+01 
-1.1309985e-01 7.7540898e-01 4.4012005e+01 
-1.9181472e-01 6.5888047e-01 4.4006447e+01 
-3.2856464e-01 9.1964108e-01 4.3776085e+01 
-3.8823184e-01 8.4352189e-01 4.3765770e+01 
-2.0457739e-01 8.4652513e-01 4.3825886e+01 
-2.8638119e-01 7.3181647e-01 4.3813885e+01 
-4.3633065e-01 9.6407896e-01 4.3714680e+01 
-1.0911675e-01 7.7426714e-01 4.3886200e+01 
-2.1001574e-02 6.8269837e-01 4.4200001e+01 
-1.8902887e-01 6.5566909e-01 4.3876659e+01 
-7.8887597e-02 5.9015810e-01 4.4200001e+01 
-3.2748649e-01 9.1997939e-01 4.3653378e+01 
-3.9889076e-01 8.5876143e-01 4.3651733e+01 
-2.0169757e-01 8.4643483e-01 4.3696846e+01 
-7.2496021e-03 6.7325598e-01 4.3947758e+01 
-1.0504345e-01 7.7307969e-01 4.3758209e+01 
-2.8498772e-01 7.2964084e-01 4.3680840e+01 
-6.3224643e-02 5.7783771e-01 4.3940754e+01 
3.5808440e-02 6.2679136e-01 4.4056572e+01 
-1.8616955e-01 6.5238589e-01 4.3744686e+01 
-4.3632996e-01 9.6407503e-01 4.3591618e+01 
-9.8678423e-03 5.4892725e-01 4.4055367e+01 
-1.8652271e-02 6.8798620e-01 4.3834026e+01 
-7.9845116e-02 5.8636194e-01 4.3823372e+01 
8.7777540e-02 5.7885915e-01 4.4200001e+01 
5.3622175e-02 5.1732427e-01 4.4200001e+01 
-3.2639861e-01 9.2031354e-01 4.3529953e+01 
-3.9894739e-01 8.5844576e-01 4.3528313e+01 
-1.9876897e-01 8.4634024e-01 4.3565521e+01 
-1.0087753e-01 7.7184403e-01 4.3627972e+01 
-2.8357074e-01 7.2742778e-01 4.3545506e+01 
-1.8323407e-01 6.4902818e-01 4.3610458e+01 
-4.3632931e-01 9.6407109e-01 4.3467831e+01 
3.1033519e-03 6.6751039e-01 4.3691772e+01 
-5.3600248e-02 5.6906003e-01 4.3676846e+01 
1.2436585e-01 5.5082864e-01 4.3886215e+01 
1.7079005e-01 5.1095647e-01 4.4054855e+01 
1.4951277e-01 4.6697062e-01 4.4053665e+01 
1.0028158e-01 4.8915190e-01 4.3877911e+01 
-4.0513036e-01 8.6722642e-01 4.3405304e+01 
-3.2530096e-01 9.2064321e-01 4.3405800e+01 
-9.6616447e-02 7.7055699e-01 4.3495411e+01 
-8.4563000e-03 6.8258613e-01 4.3574005e+01 
-1.9579062e-01 8.4624058e-01 4.3431831e+01 
2.1753120e-01 4.7335833e-01 4.4200001e+01 
2.0360756e-01 4.4289169e-01 4.4200001e+01 
-1.8021962e-01 6.4559317e-01 4.3473904e+01 
-7.0636064e-02 5.7773441e-01 4.3555408e+01 
-2.8212959e-01 7.2517604e-01 4.3407806e+01 
-4.3632865e-01 9.6406716e-01 4.3343307e+01 
1.3810426e-01 5.4143524e-01 4.3628246e+01 
-3.2419339e-01 9.2096806e-01 4.3280907e+01 
-3.9903235e-01 8.5775709e-01 4.3279266e+01 
-9.2257597e-02 7.6921552e-01 4.3360443e+01 
1.1508528e-01 4.7804743e-01 4.3612068e+01 
-1.9276154e-01 8.4613472e-01 4.3295704e+01 
1.4013666e-02 6.6131532e-01 4.3426643e+01 
-1.7712323e-01 6.4207786e-01 4.3334946e+01 
-2.8066361e-01 7.2288430e-01 4.3267666e+01 
-4.3382257e-02 5.5983055e-01 4.3403778e+01 
-4.3632799e-01 9.6406323e-01 4.3218033e+01 
3.7877345e-01 3.8273901e-01 4.4200001e+01 
3.9076596e-01 3.7443376e-01 4.3993755e+01 
-3.2307580e-01 9.2128778e-01 4.3155251e+01 
-3.9906058e-01 8.5738426e-01 4.3153610e+01 
-8.7798268e-02 7.6781619e-01 4.3222996e+01 
1.9689407e-02 6.5803534e-01 4.3290459e+01 
-6.0862999e-02 5.6866169e-01 4.3278019e+01 
-1.8968078e-01 8.4602165e-01 4.3157055e+01 
-1.7394182e-01 6.3847917e-01 4.3193501e+01 
-4.3632734e-01 9.6405929e-01 4.3091995e+01 
4.0275589e-01 3.6612594e-01 4.3787510e+01 
1.2304078e-01 5.5709994e-01 4.3330139e+01 
-2.7917209e-01 7.2055119e-01 4.3125000e+01 
2.5336364e-01 4.4907436e-01 4.3468094e+01 
2.3670304e-01 4.1684708e-01 4.3469433e+01 
1.3086085e-01 4.6634668e-01 4.3336948e+01 
-3.8351217e-01 8.3473074e-01 4.3036392e+01 
-3.2194808e-01 9.2160189e-01 4.3028820e+01 
2.5518833e-02 6.5462554e-01 4.3151749e+01 
-8.3235659e-02 7.6635528e-01 4.3082981e+01 
4.1474071e-01 3.5781288e-01 4.3581264e+01 
-1.8654740e-01 8.4590012e-01 4.3015797e+01 
-3.2522827e-02 5.5011308e-01 4.3120937e+01 
-1.7067213e-01 6.3479382e-01 4.3049488e+01 
-4.3632668e-01 9.6405542e-01 4.2965172e+01 
-2.7765438e-01 7.1817529e-01 4.2979721e+01 
2.6620242e-01 4.4011977e-01 4.3261948e+01 
1.3584816e-02 6.7044950e-01 4.3025066e+01 
-3.2081014e-01 9.2191011e-01 4.2901604e+01 
-3.8160574e-01 8.3169121e-01 4.2902863e+01 
-7.8566879e-02 7.6482886e-01 4.2940315e+01 
-5.0480481e-02 5.5910730e-01 4.2990566e+01 
4.2671782e-01 3.4949207e-01 4.3375019e+01 
1.6821145e-01 5.2049083e-01 4.3083881e+01 
-1.8336046e-01 8.4576881e-01 4.2871841e+01 
-4.3632606e-01 9.6405160e-01 4.2837555e+01 
-1.6731077e-01 6.3101834e-01 4.2902817e+01 
1.4768846e-01 4.5400122e-01 4.3051926e+01 
-2.7610970e-01 7.1575516e-01 4.2831745e+01 
-3.1966189e-01 9.2221189e-01 4.2773579e+01 
-3.8560396e-01 8.3684862e-01 4.2767078e+01 
3.7660085e-02 6.4738947e-01 4.2866421e+01 
-7.3788933e-02 7.6323271e-01 4.2794899e+01 
4.3868470e-01 3.4116083e-01 4.3168777e+01 
-4.3632543e-01 9.6404779e-01 4.2709122e+01 
-2.0968946e-02 5.3986710e-01 4.2827656e+01 
-1.8011902e-01 8.4562629e-01 4.2725094e+01 
-1.6385415e-01 6.2714905e-01 4.2753403e+01 
-2.7453732e-01 7.1328926e-01 4.2680973e+01 
-3.1850323e-01 9.2250693e-01 4.2644733e+01 
-3.9907700e-01 8.5570478e-01 4.2643101e+01 
2.5504474e-02 6.6361672e-01 4.2734810e+01 
1.8471870e-01 5.0880390e-01 4.2796177e+01 
-6.8898737e-02 7.6156229e-01 4.2646645e+01 
-3.9438177e-02 5.4903054e-01 4.2692345e+01 
-4.3632481e-01 9.6404403e-01 4.2579861e+01 
4.5063871e-01 3.3281663e-01 4.2962532e+01 
1.6565691e-01 4.4095638e-01 4.2756321e+01 
-1.7682223e-01 8.4547096e-01 4.2575459e+01 
-1.6029853e-01 6.2318206e-01 4.2601143e+01 
-4.0415615e-01 8.6278629e-01 4.2516582e+01 
-3.1733403e-01 9.2279470e-01 4.2515053e+01 
-2.7293649e-01 7.1077597e-01 4.2527313e+01 
5.0482783e-02 6.3954860e-01 4.2569923e+01 
-4.3632418e-01 9.6404034e-01 4.2449757e+01 
-6.3893095e-02 7.5981271e-01 4.2495445e+01 
-8.6617703e-03 5.2904755e-01 4.2523201e+01 
-1.7346917e-01 8.4530097e-01 4.2422829e+01 
-1.5663996e-01 6.1911333e-01 4.2445942e+01 
3.0435190e-01 4.1341871e-01 4.2643494e+01 
4.6257737e-01 3.2445681e-01 4.2756287e+01 
-3.1615424e-01 9.2307472e-01 4.2384518e+01 
-3.9902648e-01 8.5475212e-01 4.2382885e+01 
-2.7130640e-01 7.0821363e-01 4.2370659e+01 
3.8079392e-02 6.5619886e-01 4.2433029e+01 
2.0230262e-01 4.9620378e-01 4.2497147e+01 
-4.3632355e-01 9.6403670e-01 4.2318787e+01 
-5.8768708e-02 7.5797862e-01 4.2341198e+01 
-2.7680276e-02 5.3838593e-01 4.2382599e+01 
1.8486446e-01 4.2715022e-01 4.2449394e+01 
-3.8436696e-01 8.3356136e-01 4.2264896e+01 
8.9545198e-02 5.3233254e-01 4.2382050e+01 
-3.3225983e-01 9.3122375e-01 4.2255634e+01 
-1.7005907e-01 8.4511453e-01 4.2267101e+01 
-1.5287429e-01 6.1493850e-01 4.2287693e+01 
4.7449806e-01 3.1607881e-01 4.2550037e+01 
-2.6964626e-01 7.0560038e-01 4.2210907e+01 
-4.3632296e-01 9.6403313e-01 4.2186939e+01 
6.4036883e-02 6.3103610e-01 4.2261456e+01 
-5.3522192e-02 7.5605446e-01 4.2183796e+01 
-3.7873057e-01 8.2541841e-01 4.2124020e+01 
-3.1376252e-01 9.2360973e-01 4.2120819e+01 
4.4639236e-03 5.1760370e-01 4.2206776e+01 
-1.6659111e-01 8.4490943e-01 4.2108162e+01 
-1.4899719e-01 6.1065292e-01 4.2126286e+01 
-4.3632239e-01 9.6402961e-01 4.2054195e+01 
4.8639825e-01 3.0768004e-01 4.2343792e+01 
-2.6795524e-01 7.0293444e-01 4.2047943e+01 
2.4746621e-01 4.6040925e-01 4.2191032e+01 
7.1105182e-02 6.2650448e-01 4.2102463e+01 
-3.1255043e-01 9.2386365e-01 4.1987617e+01 
-4.8150036e-02 7.5403398e-01 4.2023121e+01 
-1.5144684e-02 5.2712250e-01 4.2060505e+01 
-3.7995064e-01 8.2661813e-01 4.1980038e+01 
2.0541981e-01 4.1251117e-01 4.2130333e+01 
-1.6306458e-01 8.4468329e-01 4.1945896e+01 
-4.3632182e-01 9.6402621e-01 4.1920536e+01 
-1.4500406e-01 6.0625184e-01 4.1961609e+01 
1.3375351e-01 5.6370503e-01 4.1969833e+01 
-2.6623246e-01 7.0021385e-01 4.1881653e+01 
-3.1132740e-01 9.2410773e-01 4.1853493e+01 
-3.9880505e-01 8.5261923e-01 4.1851868e+01 
4.9827534e-01 2.9925787e-01 4.2137547e+01 
3.4194937e-01 3.8685825e-01 4.2025021e+01 
-4.2648647e-02 7.5191063e-01 4.1859051e+01 
-2.5401810e-01 7.9503769e-01 4.1808533e+01 
1.8480448e-02 5.0547802e-01 4.1877510e+01 
-4.3632126e-01 9.6402287e-01 4.1785946e+01 
-1.5947884e-01 8.4443361e-01 4.1780174e+01 
-1.4089009e-01 6.0172999e-01 4.1793541e+01 
-3.1009343e-01 9.2434150e-01 4.1718426e+01 
-4.0306881e-01 8.5845691e-01 4.1716179e+01 
8.5861288e-02 6.1683756e-01 4.1774368e+01 
-2.6447710e-01 6.9743657e-01 4.1711910e+01 
3.0427080e-01 4.1638452e-01 4.1839512e+01 
2.6751360e-01 3.7833902e-01 4.1830902e+01 
5.1012677e-01 2.9080975e-01 4.1931297e+01 
-3.7014309e-02 7.4967718e-01 4.1691463e+01 
-4.3632072e-01 9.6401966e-01 4.1650398e+01 
2.5847588e-02 4.9913955e-01 4.1707767e+01 
-1.5583332e-01 8.4415752e-01 4.1610870e+01 
-3.8322043e-01 8.2981020e-01 4.1595791e+01 
-3.0884841e-01 9.2456430e-01 4.1582397e+01 
-1.3665022e-01 5.9708190e-01 4.1621960e+01 
9.3565010e-02 6.1167872e-01 4.1605015e+01 
-2.6268822e-01 6.9460052e-01 4.1538593e+01 
-4.3632022e-01 9.6401656e-01 4.1513885e+01 
-3.1243213e-02 7.4732590e-01 4.1520226e+01 
2.7603787e-01 3.7115356e-01 4.1624012e+01 
2.8505871e-01 4.3281260e-01 4.1611507e+01 
5.2195001e-01 2.8233302e-01 4.1725052e+01 
3.3468332e-02 4.9260557e-01 4.1534447e+01 
-3.9853087e-01 8.5081697e-01 4.1443768e+01 
-3.2560509e-01 9.3245691e-01 4.1443577e+01 
-1.5212752e-01 8.4385180e-01 4.1437847e+01 
-1.3227913e-01 5.9230179e-01 4.1446728e+01 
-4.3631971e-01 9.6401358e-01 4.1376381e+01 
[...]
POINT_DATA 6166
FIELD FieldData 5
DISPLACEMENT 3 6166  float
3.4114757e-01 3.1347623e-01 -4.1898340e-03 
3.3905947e-01 3.1136686e-01 -4.1531418e-03 
3.4110972e-01 3.1340319e-01 -5.2820519e-03 
3.4109068e-01 3.1345949e-01 -2.9091781e-03 
3.3797950e-01 3.1024277e-01 -5.1754354e-03 
3.3804154e-01 3.1037977e-01 -2.8404575e-03 
3.3695975e-01 3.0924582e-01 -4.1162320e-03 
3.4106699e-01 3.1333691e-01 -6.0069948e-03 
3.4103519e-01 3.1340823e-01 -2.7570243e-03 
3.3893868e-01 3.1118551e-01 -6.0157352e-03 
3.3883697e-01 3.1118807e-01 -2.7051780e-03 
3.3587393e-01 3.0811501e-01 -5.1629036e-03 
3.3570495e-01 3.0801907e-01 -2.8093504e-03 
3.3677435e-01 3.0899766e-01 -6.0245893e-03 
3.3484825e-01 3.0711284e-01 -4.0791021e-03 
3.4102383e-01 3.1328017e-01 -6.4195893e-03 
3.3660263e-01 3.0893141e-01 -2.6524949e-03 
3.4099016e-01 3.1335178e-01 -3.1007747e-03 
3.3776072e-01 3.0998170e-01 -6.4295330e-03 
3.3762950e-01 3.0995768e-01 -3.0184695e-03 
3.3375645e-01 3.0597526e-01 -5.1502329e-03 
3.3355603e-01 3.0584809e-01 -2.7770270e-03 
3.3457282e-01 3.0677223e-01 -6.0335314e-03 
3.3433107e-01 3.0663714e-01 -2.5989695e-03 
3.3272475e-01 3.0496776e-01 -4.0417551e-03 
3.3557627e-01 3.0777347e-01 -6.4402591e-03 
3.4097236e-01 3.1322694e-01 -6.4580189e-03 
3.3537528e-01 3.0768079e-01 -2.9709828e-03 
3.4094405e-01 3.1328195e-01 -3.8306899e-03 
3.3162686e-01 3.0382326e-01 -5.1374072e-03 
3.3158469e-01 3.0385411e-01 -2.8247654e-03 
3.3233291e-01 3.0450809e-01 -6.0425280e-03 
3.3658886e-01 3.0879644e-01 -6.4541134e-03 
3.3335400e-01 3.0552706e-01 -6.4510568e-03 
3.3202106e-01 3.0430412e-01 -2.5445970e-03 
3.3643755e-01 3.0872783e-01 -3.8073706e-03 
3.3845225e-01 3.1068096e-01 -6.4190733e-03 
3.3308321e-01 3.0536565e-01 -2.9229152e-03 
3.3058906e-01 3.0281037e-01 -4.0042028e-03 
3.3840695e-01 3.1070396e-01 -4.2606033e-03 
3.3462271e-01 3.0680838e-01 -6.4800628e-03 
3.3440629e-01 3.0668032e-01 -3.6329185e-03 
3.4091440e-01 3.1316623e-01 -6.5233824e-03 
3.4089488e-01 3.1319979e-01 -4.8515322e-03 
3.2948500e-01 3.0165896e-01 -5.1244604e-03 
3.2944274e-01 3.0169064e-01 -2.7807700e-03 
3.3005348e-01 3.0220398e-01 -6.0515502e-03 
3.3109275e-01 3.0324122e-01 -6.4618811e-03 
3.2967147e-01 3.0193108e-01 -2.4893177e-03 
3.3075207e-01 3.0301112e-01 -2.8741907e-03 
3.2844093e-01 3.0064058e-01 -3.9663604e-03 
3.3214250e-01 3.0430239e-01 -6.4548813e-03 
3.3185250e-01 3.0409580e-01 -3.7401251e-03 
3.3545187e-01 3.0764350e-01 -6.5707653e-03 
3.3835566e-01 3.1057346e-01 -6.7279669e-03 
3.3832058e-01 3.1057438e-01 -5.5869678e-03 
3.3528668e-01 3.0752444e-01 -5.0686393e-03 
3.2731280e-01 2.9953766e-01 -2.7901775e-03 
3.2733062e-01 2.9948205e-01 -5.1112543e-03 
3.2879126e-01 3.0091482e-01 -6.4726858e-03 
3.3010662e-01 3.0224386e-01 -6.4828740e-03 
3.2773322e-01 2.9985872e-01 -6.0605598e-03 
3.4085253e-01 3.1309098e-01 -6.9233775e-03 
3.4084243e-01 3.1310549e-01 -6.1474312e-03 
3.2838070e-01 3.0061597e-01 -2.8249226e-03 
3.2975128e-01 3.0197784e-01 -3.5599789e-03 
3.2728109e-01 2.9951698e-01 -2.4332476e-03 
3.2628036e-01 2.9845813e-01 -3.9283750e-03 
3.3096913e-01 3.0311289e-01 -6.5656872e-03 
3.2516369e-01 2.9729259e-01 -5.0980207e-03 
3.2512134e-01 2.9732603e-01 -2.6917409e-03 
3.2644832e-01 2.9854661e-01 -6.4834156e-03 
3.3066642e-01 3.0285525e-01 -5.0498103e-03 
3.2537091e-01 2.9747108e-01 -6.0694772e-03 
3.2753769e-01 2.9964840e-01 -6.4545181e-03 
3.2596788e-01 2.9817903e-01 -2.7750656e-03 
3.2484862e-01 2.9706037e-01 -2.3761427e-03 
3.2710889e-01 2.9930374e-01 -3.6727465e-03 
3.2410696e-01 2.9626295e-01 -3.8900871e-03 
3.4079191e-01 3.1299123e-01 -8.1305662e-03 
3.3720738e-01 3.0936813e-01 -8.1300791e-03 
3.2298386e-01 2.9509005e-01 -5.0845551e-03 
3.2294157e-01 2.9512450e-01 -2.6467005e-03 
3.2406262e-01 2.9613534e-01 -6.4940206e-03 
3.2517281e-01 2.9725841e-01 -6.4537209e-03 
3.2493341e-01 2.9711103e-01 -3.4865933e-03 
3.2296517e-01 2.9503974e-01 -6.0782321e-03 
3.2351235e-01 2.9569903e-01 -2.7246056e-03 
3.2192060e-01 2.9405475e-01 -3.8515793e-03 
3.3362287e-01 3.0574518e-01 -8.1294626e-03 
3.2580501e-01 2.9789615e-01 -6.4880676e-03 
3.2237279e-01 2.9456022e-01 -2.3181993e-03 
3.2813564e-01 3.0023864e-01 -6.8958988e-03 
3.2814848e-01 3.0027875e-01 -6.0422593e-03 
3.2588553e-01 2.9802388e-01 -5.0345766e-03 
3.2089713e-01 2.9306370e-01 -2.4838650e-03 
3.2079101e-01 2.9287466e-01 -5.0707208e-03 
3.2276449e-01 2.9482478e-01 -6.4525567e-03 
3.2163280e-01 2.9367968e-01 -6.5045017e-03 
3.3003870e-01 3.0212271e-01 -8.1285797e-03 
3.2051477e-01 2.9256338e-01 -6.0870750e-03 
3.2219687e-01 2.9434195e-01 -3.6054589e-03 
3.2101262e-01 2.9317468e-01 -2.6733642e-03 
3.1972122e-01 2.9183352e-01 -3.8127748e-03 
3.1985223e-01 2.9201499e-01 -2.2593120e-03 
3.2455370e-01 2.9661852e-01 -6.8982979e-03 
3.2057565e-01 2.9261193e-01 -6.4842356e-03 
3.1858489e-01 2.9064617e-01 -5.0568031e-03 
3.1858012e-01 2.9072443e-01 -2.4232876e-03 
3.1915748e-01 2.9117823e-01 -6.5147346e-03 
3.1994247e-01 2.9207000e-01 -3.4127138e-03 
3.2645532e-01 2.9850113e-01 -8.1270579e-03 
3.2151201e-01 2.9355580e-01 -6.5542748e-03 
3.1801817e-01 2.9004058e-01 -6.0956138e-03 
3.1750831e-01 2.8959891e-01 -3.7736469e-03 
3.1846750e-01 2.9060462e-01 -2.6217408e-03 
3.2093433e-01 2.9302084e-01 -5.0238399e-03 
3.1728545e-01 2.8942350e-01 -2.1995238e-03 
3.1636530e-01 2.8840417e-01 -5.0425464e-03 
3.1622893e-01 2.8834933e-01 -2.4036078e-03 
3.1781209e-01 2.8982088e-01 -6.4486898e-03 
3.1663528e-01 2.8862962e-01 -6.5246867e-03 
3.2287210e-01 2.9487991e-01 -8.1253471e-03 
3.1528199e-01 2.8735104e-01 -3.7344166e-03 
3.1710580e-01 2.8920001e-01 -3.5381466e-03 
3.1547394e-01 2.8747004e-01 -6.1038276e-03 
3.1587532e-01 2.8798747e-01 -2.5692459e-03 
3.1467131e-01 2.8678435e-01 -2.1389674e-03 
3.1413233e-01 2.8614888e-01 -5.0279228e-03 
3.1409010e-01 2.8618672e-01 -2.4632413e-03 
3.1553933e-01 2.8752354e-01 -6.4817872e-03 
3.1651664e-01 2.8850871e-01 -6.5477788e-03 
3.1406465e-01 2.8603250e-01 -6.5340875e-03 
3.1476739e-01 2.8684387e-01 -3.3383607e-03 
3.1304240e-01 2.8508982e-01 -3.6951364e-03 
3.1929049e-01 2.9126108e-01 -8.1231352e-03 
3.1580171e-01 2.8783503e-01 -5.0175753e-03 
3.1288078e-01 2.8485048e-01 -6.1116740e-03 
3.1323522e-01 2.8532195e-01 -2.5165714e-03 
3.1190178e-01 2.8397650e-01 -2.4614360e-03 
3.1188586e-01 2.8388056e-01 -5.0133928e-03 
3.1200838e-01 2.8409612e-01 -2.0771790e-03 
3.1266940e-01 2.8462580e-01 -6.4420435e-03 
3.1078896e-01 2.8281507e-01 -3.6553543e-03 
3.1144461e-01 2.8338587e-01 -6.5430296e-03 
3.1182504e-01 2.8386766e-01 -3.4714669e-03 
3.1023708e-01 2.8218019e-01 -6.1191502e-03 
3.1054577e-01 2.8260702e-01 -2.4627049e-03 
3.1381550e-01 2.8576884e-01 -6.9025462e-03 
3.1571075e-01 2.8764483e-01 -8.1203245e-03 
3.0962548e-01 2.8159779e-01 -4.9985703e-03 
3.0958328e-01 2.8163734e-01 -2.3699920e-03 
3.0929491e-01 2.8135753e-01 -2.0143241e-03 
3.1030765e-01 2.8223950e-01 -6.4767501e-03 
3.1132889e-01 2.8326875e-01 -6.5402258e-03 
3.0852172e-01 2.8052646e-01 -3.6156052e-03 
3.0877268e-01 2.8068730e-01 -6.5517714e-03 
3.0939752e-01 2.8142247e-01 -3.2640616e-03 
3.1047714e-01 2.8245699e-01 -5.0164056e-03 
3.0753085e-01 2.7956927e-01 -2.2185072e-03 
3.0936790e-01 2.8133136e-01 -5.1858746e-03 
3.0740070e-01 2.7935666e-01 -4.8224856e-03 
3.0754119e-01 2.7945757e-01 -6.1262148e-03 
3.0780435e-01 2.7984035e-01 -2.4087625e-03 
3.1213260e-01 2.8403014e-01 -8.1164492e-03 
3.0652940e-01 2.7856699e-01 -1.9509132e-03 
3.0624077e-01 2.7822459e-01 -3.5755485e-03 
3.0732390e-01 2.7922776e-01 -6.4326921e-03 
3.0604795e-01 2.7793556e-01 -6.5597263e-03 
3.0509004e-01 2.7710778e-01 -2.1319815e-03 
3.0506334e-01 2.7699202e-01 -4.9673798e-03 
3.0634165e-01 2.7833232e-01 -3.4051586e-03 
3.0479169e-01 2.7668124e-01 -6.1331242e-03 
3.0500993e-01 2.7702075e-01 -2.3536661e-03 
3.0394572e-01 2.7590859e-01 -3.5350120e-03 
3.0855656e-01 2.8041896e-01 -8.1118876e-03 
3.0371025e-01 2.7572274e-01 -1.8863224e-03 
3.0600989e-01 2.7789566e-01 -6.6023073e-03 
3.0457160e-01 2.7644864e-01 -6.4268466e-03 
3.0276084e-01 2.7466854e-01 -4.9515511e-03 
3.0326837e-01 2.7512917e-01 -6.5666977e-03 
3.0381918e-01 2.7579248e-01 -3.1898422e-03 
3.0260170e-01 2.7459729e-01 -2.0893211e-03 
3.0494738e-01 2.7687287e-01 -5.0206203e-03 
3.0198669e-01 2.7384946e-01 -6.1390381e-03 
3.0163574e-01 2.7357846e-01 -3.4940524e-03 
3.0216137e-01 2.7414715e-01 -2.2986929e-03 
3.0224475e-01 2.7410182e-01 -6.3720904e-03 
3.0083612e-01 2.7282402e-01 -1.8211025e-03 
3.0044392e-01 2.7233085e-01 -4.9349274e-03 
3.0040127e-01 2.7237347e-01 -2.1799158e-03 
3.0498454e-01 2.7681303e-01 -8.1064096e-03 
3.0309680e-01 2.7494523e-01 -6.8991086e-03 
3.0043292e-01 2.7226701e-01 -6.5726810e-03 
2.9960912e-01 2.7152810e-01 -3.6618356e-03 
3.0064380e-01 2.7258289e-01 -3.3398832e-03 
2.9931208e-01 2.7123523e-01 -3.4529343e-03 
2.9912519e-01 2.7096194e-01 -6.1431127e-03 
2.9925752e-01 2.7121830e-01 -2.2438914e-03 
2.9811299e-01 2.6997972e-01 -4.9180822e-03 
2.9806310e-01 2.7001506e-01 -2.1689259e-03 
2.9889840e-01 2.7072328e-01 -6.4101093e-03 
2.9790565e-01 2.6986957e-01 -1.7554003e-03 
2.9990926e-01 2.7173397e-01 -6.7073125e-03 
2.9975080e-01 2.7161539e-01 -5.4079336e-03 
3.0141413e-01 2.7320838e-01 -8.0993166e-03 
2.9754040e-01 2.6934820e-01 -6.5773604e-03 
2.9697430e-01 2.6887834e-01 -3.4124320e-03 
2.9771143e-01 2.6962540e-01 -3.3085763e-03 
2.9620579e-01 2.6801655e-01 -6.1466587e-03 
2.9597363e-01 2.6791346e-01 -1.9788542e-03 
2.9576883e-01 2.6761591e-01 -4.9002338e-03 
2.9629588e-01 2.6823306e-01 -2.1873098e-03 
2.9597598e-01 2.6777515e-01 -6.4008823e-03 
2.9491800e-01 2.6685819e-01 -1.6883926e-03 
2.9462385e-01 2.6650843e-01 -3.3714997e-03 
2.9458812e-01 2.6637059e-01 -6.5808999e-03 
2.9617858e-01 2.6801282e-01 -5.3683114e-03 
2.9598641e-01 2.6777986e-01 -6.5917224e-03 
2.9784909e-01 2.6961124e-01 -8.0909058e-03 
2.9472083e-01 2.6661035e-01 -3.2769863e-03 
2.9336807e-01 2.6528323e-01 -2.0361112e-03 
2.9338539e-01 2.6521763e-01 -4.7060763e-03 
2.9322585e-01 2.6501197e-01 -6.1498662e-03 
2.9327616e-01 2.6518995e-01 -2.1312314e-03 
2.9225799e-01 2.6412430e-01 -3.3295890e-03 
2.9341185e-01 2.6519123e-01 -6.3499454e-03 
2.9187050e-01 2.6378784e-01 -1.6210476e-03 
2.9157537e-01 2.6333305e-01 -6.5833437e-03 
2.9103765e-01 2.6284668e-01 -4.8649264e-03 
2.9099390e-01 2.6289216e-01 -1.9874326e-03 
2.9167089e-01 2.6353672e-01 -3.2461295e-03 
2.9277965e-01 2.6458320e-01 -5.4445197e-03 
2.9428986e-01 2.6602152e-01 -8.0816029e-03 
2.9018492e-01 2.6194647e-01 -6.1517698e-03 
2.9224622e-01 2.6400620e-01 -6.6724247e-03 
2.8987738e-01 2.6172692e-01 -3.2865200e-03 
2.9019591e-01 2.6208723e-01 -2.0746456e-03 
2.9026425e-01 2.6201943e-01 -6.3286461e-03 
2.8864950e-01 2.6044133e-01 -4.8460462e-03 
2.8860569e-01 2.6048845e-01 -1.9384098e-03 
2.8876185e-01 2.6065746e-01 -1.5524122e-03 
2.8849977e-01 2.6023355e-01 -6.5846778e-03 
2.8855965e-01 2.6040289e-01 -3.2156983e-03 
2.8748235e-01 2.5931618e-01 -3.2442876e-03 
2.8937832e-01 2.6116019e-01 -5.3007901e-03 
2.9073700e-01 2.6243988e-01 -8.0704736e-03 
2.8707987e-01 2.5881818e-01 -6.1525605e-03 
2.8705311e-01 2.5892326e-01 -2.0175152e-03 
2.8879556e-01 2.6052845e-01 -6.6893306e-03 
2.8624710e-01 2.5802204e-01 -4.8265574e-03 
2.8620365e-01 2.5807053e-01 -1.8893486e-03 
2.8699273e-01 2.5872412e-01 -6.3140248e-03 
2.8558955e-01 2.5746521e-01 -1.4828715e-03 
2.8507316e-01 2.5689095e-01 -3.2024977e-03 
2.8535891e-01 2.5707036e-01 -6.5845894e-03 
2.8538477e-01 2.5720653e-01 -3.1857300e-03 
2.8383094e-01 2.5558993e-01 -4.8069172e-03 
2.8378683e-01 2.5563806e-01 -1.8393146e-03 
2.8390861e-01 2.5562549e-01 -6.1526210e-03 
2.8719100e-01 2.5886703e-01 -8.0575105e-03 
2.8384569e-01 2.5569630e-01 -1.9599658e-03 
2.8536388e-01 2.5712156e-01 -5.1520555e-03 
2.8537288e-01 2.5708005e-01 -6.7110015e-03 
2.8264883e-01 2.5445199e-01 -3.1589647e-03 
2.8366911e-01 2.5537807e-01 -6.2978948e-03 
2.8235182e-01 2.5420913e-01 -1.4131361e-03 
2.8215146e-01 2.5384188e-01 -6.5822937e-03 
2.8262815e-01 2.5442544e-01 -3.3851143e-03 
2.8139812e-01 2.5314277e-01 -4.7868663e-03 
2.8135526e-01 2.5319377e-01 -1.7913315e-03 
2.8066984e-01 2.5236666e-01 -6.1503225e-03 
2.8365165e-01 2.5530234e-01 -8.0458215e-03 
2.8021005e-01 2.5200081e-01 -3.1179104e-03 
2.8057283e-01 2.5240514e-01 -1.9019864e-03 
2.8190386e-01 2.5358856e-01 -6.6883257e-03 
2.8151011e-01 2.5323451e-01 -5.3897435e-03 
2.8033960e-01 2.5202781e-01 -6.2827133e-03 
2.7895233e-01 2.5068384e-01 -4.7677360e-03 
2.7890804e-01 2.5073487e-01 -1.7424603e-03 
2.7904823e-01 2.5088832e-01 -1.3411959e-03 
2.7887565e-01 2.5054672e-01 -6.5780296e-03 
2.7932045e-01 2.5109392e-01 -3.5064202e-03 
2.7775571e-01 2.4953414e-01 -3.0756241e-03 
2.7736330e-01 2.4904092e-01 -6.1463402e-03 
2.7725074e-01 2.4901724e-01 -3.3539454e-03 
2.8012028e-01 2.5174931e-01 -8.0315992e-03 
2.7723235e-01 2.4904808e-01 -1.8436493e-03 
2.7847648e-01 2.5014225e-01 -6.6152588e-03 
2.7649096e-01 2.4821007e-01 -4.7452548e-03 
2.7644584e-01 2.4826041e-01 -1.6924653e-03 
2.7698261e-01 2.4865215e-01 -6.2714186e-03 
2.7800232e-01 2.4970254e-01 -5.4834075e-03 
2.7567545e-01 2.4750026e-01 -1.2698052e-03 
2.7528700e-01 2.4705371e-01 -3.0312454e-03 
2.7552906e-01 2.4718252e-01 -6.5724184e-03 
2.7589473e-01 2.4765098e-01 -3.4969032e-03 
2.7401379e-01 2.4572127e-01 -4.7245584e-03 
2.7397057e-01 2.4577460e-01 -1.6432878e-03 
2.7398187e-01 2.4564411e-01 -6.1399913e-03 
2.7659482e-01 2.4820355e-01 -8.0163414e-03 
2.7382171e-01 2.4562296e-01 -1.7853462e-03 
2.7502966e-01 2.4667750e-01 -6.5898662e-03 
2.7280283e-01 2.4455993e-01 -2.9888907e-03 
2.7357838e-01 2.4523206e-01 -6.2555536e-03 
2.7456373e-01 2.4624182e-01 -5.6190025e-03 
2.7219984e-01 2.4392068e-01 -4.0862076e-03 
2.7223131e-01 2.4404368e-01 -1.1956734e-03 
2.7210888e-01 2.4374726e-01 -6.5640439e-03 
2.7152219e-01 2.4322122e-01 -4.7034593e-03 
2.7235720e-01 2.4409601e-01 -3.5554075e-03 
2.7116451e-01 2.4296303e-01 -1.4612911e-03 
2.7052808e-01 2.4217632e-01 -6.1329012e-03 
2.7030236e-01 2.4205200e-01 -2.9452180e-03 
2.7308050e-01 2.4467306e-01 -7.9984171e-03 
2.7034387e-01 2.4212779e-01 -1.9066655e-03 
2.7147013e-01 2.4310540e-01 -6.5258010e-03 
2.7024567e-01 2.4188499e-01 -6.2607583e-03 
2.7123731e-01 2.4289183e-01 -5.9194244e-03 
2.6902273e-01 2.4071416e-01 -4.6704970e-03 
2.6897886e-01 2.4076752e-01 -1.5474057e-03 
2.6871443e-01 2.4051604e-01 -1.1216989e-03 
2.6863039e-01 2.4025699e-01 -6.5525761e-03 
2.6780483e-01 2.3954710e-01 -2.9025043e-03 
2.6814160e-01 2.3986496e-01 -3.5585398e-03 
2.6702651e-01 2.3866440e-01 -6.1239838e-03 
2.6957920e-01 2.4115916e-01 -7.9772975e-03 
2.6653382e-01 2.3821767e-01 -4.6302411e-03 
2.6649153e-01 2.3827265e-01 -1.5062242e-03 
2.6683232e-01 2.3861288e-01 -1.6398701e-03 
2.6774099e-01 2.3938385e-01 -5.9019006e-03 
2.6720509e-01 2.3882623e-01 -6.5163965e-03 
2.6614401e-01 2.3777246e-01 -6.2326714e-03 
2.6532444e-01 2.3705983e-01 -2.8611280e-03 
2.6521403e-01 2.3700710e-01 -1.0464542e-03 
2.6516062e-01 2.3677738e-01 -6.5441239e-03 
2.6489258e-01 2.3662834e-01 -2.8984959e-03 
2.6406360e-01 2.3574209e-01 -4.5884987e-03 
2.6386881e-01 2.3564786e-01 -1.3193713e-03 
2.6358309e-01 2.3521134e-01 -6.1136833e-03 
2.6608631e-01 2.3765659e-01 -7.9554943e-03 
2.6335853e-01 2.3513351e-01 -1.5493211e-03 
2.6286131e-01 2.3459218e-01 -2.8183463e-03 
2.6321927e-01 2.3483925e-01 -6.2387139e-03 
2.6397410e-01 2.3563753e-01 -4.9985386e-03 
2.6425603e-01 2.3586151e-01 -6.7918864e-03 
2.6290631e-01 2.3452617e-01 -6.2202560e-03 
2.6176625e-01 2.3355377e-01 -9.7555976e-04 
2.6160869e-01 2.3328350e-01 -4.5459918e-03 
2.6156762e-01 2.3333903e-01 -1.4257150e-03 
2.6174846e-01 2.3335595e-01 -6.5323683e-03 
2.6144844e-01 2.3318070e-01 -2.7736933e-03 
2.6041636e-01 2.3214456e-01 -2.7771273e-03 
2.6019695e-01 2.3181801e-01 -6.0994523e-03 
2.6260400e-01 2.3416719e-01 -7.9366406e-03 
2.5993899e-01 2.3171057e-01 -1.4622408e-03 
2.5939107e-01 2.3116653e-01 -1.2047554e-03 
2.5917479e-01 2.3084727e-01 -4.5022164e-03 
2.5983948e-01 2.3145163e-01 -6.2302216e-03 
2.6077887e-01 2.3237698e-01 -6.7725768e-03 
2.6077294e-01 2.3240033e-01 -5.8643208e-03 
2.5837231e-01 2.3015647e-01 -9.0629159e-04 
2.5949961e-01 2.3117563e-01 -4.3005967e-03 
2.5839248e-01 2.2999515e-01 -6.5183258e-03 
2.5799128e-01 2.2971638e-01 -2.7350944e-03 
2.5894889e-01 2.3056078e-01 -6.1922790e-03 
2.5805888e-01 2.2979027e-01 -2.6531455e-03 
2.5675741e-01 2.2842711e-01 -4.4597317e-03 
2.5686601e-01 2.2848417e-01 -6.0852743e-03 
2.5912628e-01 2.3068233e-01 -7.9103438e-03 
2.5657275e-01 2.2834377e-01 -1.3780118e-03 
2.5625297e-01 2.2802749e-01 -1.1143760e-03 
2.5651607e-01 2.2812530e-01 -6.2205172e-03 
2.5558048e-01 2.2730637e-01 -2.6947318e-03 
2.5730836e-01 2.2889914e-01 -6.7519094e-03 
2.5730139e-01 2.2892171e-01 -5.8446438e-03 
2.5503033e-01 2.2681557e-01 -8.3858904e-04 
2.5509214e-01 2.2669363e-01 -6.5024588e-03 
2.5435632e-01 2.2602797e-01 -4.4149719e-03 
2.5431687e-01 2.2608405e-01 -1.3090044e-03 
2.5547311e-01 2.2715572e-01 -4.0090336e-03 
2.5548992e-01 2.2709940e-01 -6.1628507e-03 
2.5472233e-01 2.2645643e-01 -2.5370442e-03 
2.5377113e-01 2.2549833e-01 -2.6443489e-03 
2.5359181e-01 2.2521041e-01 -6.0682562e-03 
2.5318941e-01 2.2491610e-01 -2.6549816e-03 
2.5566095e-01 2.2721221e-01 -7.8832759e-03 
2.5303122e-01 2.2481482e-01 -8.5855532e-04 
2.5325987e-01 2.2503293e-01 -1.2973176e-03 
2.5324896e-01 2.2485797e-01 -6.2093358e-03 
2.5385278e-01 2.2544321e-01 -6.7283921e-03 
2.5384447e-01 2.2546515e-01 -5.8235088e-03 
2.5197548e-01 2.2365078e-01 -4.3700668e-03 
2.5193346e-01 2.2370382e-01 -1.2723536e-03 
2.5182399e-01 2.2352712e-01 -3.4313663e-03 
2.5173959e-01 2.2352862e-01 -7.7519700e-04 
2.5182027e-01 2.2351012e-01 -3.8609072e-03 
2.5184962e-01 2.2345191e-01 -6.4828442e-03 
2.5202629e-01 2.2371252e-01 -3.9942567e-03 
2.5204545e-01 2.2365749e-01 -6.1315615e-03 
2.5144032e-01 2.2317964e-01 -2.4275552e-03 
2.5081736e-01 2.2254804e-01 -2.6130402e-03 
2.5065896e-01 2.2244656e-01 -8.2312903e-04 
2.5037241e-01 2.2199458e-01 -6.0455613e-03 
2.4982062e-01 2.2159128e-01 -1.3555370e-03 
2.4999656e-01 2.2177669e-01 -1.2180512e-03 
2.5221038e-01 2.2376339e-01 -7.8538619e-03 
2.4975400e-01 2.2148661e-01 -2.5957711e-03 
2.4961291e-01 2.2129157e-01 -4.3242224e-03 
2.5003931e-01 2.2165248e-01 -6.1992593e-03 
2.5041178e-01 2.2200741e-01 -6.7031761e-03 
2.5040239e-01 2.2202864e-01 -5.8006668e-03 
2.4846499e-01 2.2020078e-01 -2.5748217e-03 
2.4850284e-01 2.2029983e-01 -7.1250880e-04 
2.4865706e-01 2.2026592e-01 -6.4615323e-03 
2.4820828e-01 2.1995729e-01 -2.3147254e-03 
2.4859403e-01 2.2028488e-01 -3.9821253e-03 
2.4861498e-01 2.2023305e-01 -6.1020218e-03 
2.4727046e-01 2.1895529e-01 -4.2803120e-03 
2.4731828e-01 2.1905419e-01 -2.6909176e-03 
2.4722859e-01 2.1901049e-01 -1.2019351e-03 
2.4720620e-01 2.1883436e-01 -6.0251798e-03 
2.4678551e-01 2.1857370e-01 -1.1420473e-03 
2.4877547e-01 2.2033425e-01 -7.8216456e-03 
2.4688092e-01 2.1850015e-01 -6.1839242e-03 
2.4613008e-01 2.1787329e-01 -2.5341683e-03 
2.4597307e-01 2.1777311e-01 -7.4650539e-04 
2.4544621e-01 2.1714534e-01 -3.9383327e-03 
2.4552219e-01 2.1713795e-01 -6.4387172e-03 
2.4531451e-01 2.1712109e-01 -6.5262115e-04 
2.4698651e-01 2.1858904e-01 -6.6756909e-03 
2.4697612e-01 2.1860929e-01 -5.7754056e-03 
2.4508400e-01 2.1682659e-01 -2.6477540e-03 
2.4503210e-01 2.1674548e-01 -3.5911545e-03 
2.4494334e-01 2.1663684e-01 -4.2354390e-03 
2.4490294e-01 2.1669351e-01 -1.1660232e-03 
2.4502540e-01 2.1678689e-01 -2.2089314e-03 
2.4517459e-01 2.1687594e-01 -3.9648088e-03 
2.4519719e-01 2.1682550e-01 -6.0689691e-03 
2.4409406e-01 2.1573184e-01 -6.0008978e-03 
2.4381240e-01 2.1556588e-01 -2.4954930e-03 
2.4365696e-01 2.1546718e-01 -7.1113155e-04 
2.4362768e-01 2.1543016e-01 -1.0697033e-03 
2.4377362e-01 2.1540201e-01 -6.1720451e-03 
2.4535474e-01 2.1692215e-01 -7.7871587e-03 
2.4263452e-01 2.1433841e-01 -4.1907760e-03 
2.4259640e-01 2.1439676e-01 -1.1308332e-03 
2.4241112e-01 2.1414034e-01 -3.3766157e-03 
2.4243836e-01 2.1406601e-01 -6.4144712e-03 
2.4217595e-01 2.1399678e-01 -5.9095031e-04 
2.4357337e-01 2.1518654e-01 -6.6461540e-03 
2.4356230e-01 2.1520612e-01 -5.7484438e-03 
2.4151255e-01 2.1327648e-01 -2.4596294e-03 