# vtk DataFile Version 4.0
vtk output
ASCII
DATASET UNSTRUCTURED_GRID
POINTS 6166 float
-4.3633327e-01 9.6409470e-01 4.4200001e+01 
-4.3633261e-01 9.6409082e-01 4.4079685e+01 
-3.2145375e-01 9.1276109e-01 4.4200001e+01 
-3.8566181e-01 8.4097892e-01 4.4200001e+01 
-3.3069235e-01 9.1895354e-01 4.4019413e+01 
-3.8473952e-01 8.3919770e-01 4.4024357e+01 
-4.3633196e-01 9.6408689e-01 4.3958702e+01 
-2.1293370e-01 8.4677851e-01 4.4200001e+01 
-2.9042658e-01 7.3813015e-01 4.4200001e+01 
-2.1019450e-01 8.4669626e-01 4.4077393e+01 
-2.8909999e-01 7.3605996e-01 4.4073399e+01 
-3.2963324e-01 9.1929907e-01 4.3898094e+01 
-3.8679782e-01 8.4179753e-01 4.3889645e+01 
-2.0740938e-01 8.4661204e-01 4.3952713e+01 
-4.3633130e-01 9.6408290e-01 4.3837040e+01 
-1.1677200e-01 7.7521002e-01 4.4200001e+01 
-2.8775173e-01 7.3395580e-01 4.3944717e+01 
-1.9365783e-01 6.6203654e-01 4.4200001e+01 
-1.1309985e-01 7.7540898e-01 4.4012005e+01 
-1.9181472e-01 6.5888047e-01 4.4006447e+01 
-3.2856464e-01 9.1964108e-01 4.3776085e+01 
-3.8823184e-01 8.4352189e-01 4.3765770e+01 
-2.0457739e-01 8.4652513e-01 4.3825886e+01 
-2.8638119e-01 7.3181647e-01 4.3813885e+01 
-4.3633065e-01 9.6407896e-01 4.3714680e+01 
-1.0911675e-01 7.7426714e-01 4.3886200e+01 
-2.1001574e-02 6.8269837e-01 4.4200001e+01 
-1.8902887e-01 6.5566909e-01 4.3876659e+01 
-7.8887597e-02 5.9015810e-01 4.4200001e+01 
-3.2748649e-01 9.1997939e-01 4.3653378e+01 
-3.9889076e-01 8.5876143e-01 4.3651733e+01 
-2.0169757e-01 8.4643483e-01 4.3696846e+01 
-7.2496021e-03 6.7325598e-01 4.3947758e+01 
-1.0504345e-01 7.7307969e-01 4.3758209e+01 
-2.8498772e-01 7.2964084e-01 4.3680840e+01 
-6.3224643e-02 5.7783771e-01 4.3940754e+01 
3.5808440e-02 6.2679136e-01 4.4056572e+01 
-1.8616955e-01 6.5238589e-01 4.3744686e+01 
-4.3632996e-01 9.6407503e-01 4.3591618e+01 
-9.8678423e-03 5.4892725e-01 4.4055367e+01 
-1.8652271e-02 6.8798620e-01 4.3834026e+01 
-7.9845116e-02 5.8636194e-01 4.3823372e+01 
8.7777540e-02 5.7885915e-01 4.4200001e+01 
5.3622175e-02 5.1732427e-01 4.4200001e+01 
-3.2639861e-01 9.2031354e-01 4.3529953e+01 
-3.9894739e-01 8.5844576e-01 4.3528313e+01 
-1.9876897e-01 8.4634024e-01 4.3565521e+01 
-1.0087753e-01 7.7184403e-01 4.3627972e+01 
-2.8357074e-01 7.2742778e-01 4.3545506e+01 
-1.8323407e-01 6.4902818e-01 4.3610458e+01 
-4.3632931e-01 9.6407109e-01 4.3467831e+01 
3.1033519e-03 6.6751039e-01 4.3691772e+01 
-5.3600248e-02 5.6906003e-01 4.3676846e+01 
1.2436585e-01 5.5082864e-01 4.3886215e+01 
1.7079005e-01 5.1095647e-01 4.4054855e+01 
1.4951277e-01 4.6697062e-01 4.4053665e+01 
1.0028158e-01 4.8915190e-01 4.3877911e+01 
-4.0513036e-01 8.6722642e-01 4.3405304e+01 
-3.2530096e-01 9.2064321e-01 4.3405800e+01 
-9.6616447e-02 7.7055699e-01 4.3495411e+01 
-8.4563000e-03 6.8258613e-01 4.3574005e+01 
-1.9579062e-01 8.4624058e-01 4.3431831e+01 
2.1753120e-01 4.7335833e-01 4.4200001e+01 
2.0360756e-01 4.4289169e-01 4.4200001e+01 
-1.8021962e-01 6.4559317e-01 4.3473904e+01 
-7.0636064e-02 5.7773441e-01 4.3555408e+01 
-2.8212959e-01 7.2517604e-01 4.3407806e+01 
-4.3632865e-01 9.6406716e-01 4.3343307e+01 
1.3810426e-01 5.4143524e-01 4.3628246e+01 
-3.2419339e-01 9.2096806e-01 4.3280907e+01 
-3.9903235e-01 8.5775709e-01 4.3279266e+01 
-9.2257597e-02 7.6921552e-01 4.3360443e+01 
1.1508528e-01 4.7804743e-01 4.3612068e+01 
-1.9276154e-01 8.4613472e-01 4.3295704e+01 
1.4013666e-02 6.6131532e-01 4.3426643e+01 
-1.7712323e-01 6.4207786e-01 4.3334946e+01 
-2.8066361e-01 7.2288430e-01 4.3267666e+01 
-4.3382257e-02 5.5983055e-01 4.3403778e+01 
-4.3632799e-01 9.6406323e-01 4.3218033e+01 
3.7877345e-01 3.8273901e-01 4.4200001e+01 
3.9076596e-01 3.7443376e-01 4.3993755e+01 
-3.2307580e-01 9.2128778e-01 4.3155251e+01 
-3.9906058e-01 8.5738426e-01 4.3153610e+01 
-8.7798268e-02 7.6781619e-01 4.3222996e+01 
1.9689407e-02 6.5803534e-01 4.3290459e+01 
-6.0862999e-02 5.6866169e-01 4.3278019e+01 
-1.8968078e-01 8.4602165e-01 4.3157055e+01 
-1.7394182e-01 6.3847917e-01 4.3193501e+01 
-4.3632734e-01 9.6405929e-01 4.3091995e+01 
4.0275589e-01 3.6612594e-01 4.3787510e+01 
1.2304078e-01 5.5709994e-01 4.3330139e+01 
-2.7917209e-01 7.2055119e-01 4.3125000e+01 
2.5336364e-01 4.4907436e-01 4.3468094e+01 
2.3670304e-01 4.1684708e-01 4.3469433e+01 
1.3086085e-01 4.6634668e-01 4.3336948e+01 
-3.8351217e-01 8.3473074e-01 4.3036392e+01 
-3.2194808e-01 9.2160189e-01 4.3028820e+01 
2.5518833e-02 6.5462554e-01 4.3151749e+01 
-8.3235659e-02 7.6635528e-01 4.3082981e+01 
4.1474071e-01 3.5781288e-01 4.3581264e+01 
-1.8654740e-01 8.4590012e-01 4.3015797e+01 
-3.2522827e-02 5.5011308e-01 4.3120937e+01 
-1.7067213e-01 6.3479382e-01 4.3049488e+01 
-4.3632668e-01 9.6405542e-01 4.2965172e+01 
-2.7765438e-01 7.1817529e-01 4.2979721e+01 
2.6620242e-01 4.4011977e-01 4.3261948e+01 
1.3584816e-02 6.7044950e-01 4.3025066e+01 
-3.2081014e-01 9.2191011e-01 4.2901604e+01 
-3.8160574e-01 8.3169121e-01 4.2902863e+01 
-7.8566879e-02 7.6482886e-01 4.2940315e+01 
-5.0480481e-02 5.5910730e-01 4.2990566e+01 
4.2671782e-01 3.4949207e-01 4.3375019e+01 
1.6821145e-01 5.2049083e-01 4.3083881e+01 
-1.8336046e-01 8.4576881e-01 4.2871841e+01 
-4.3632606e-01 9.6405160e-01 4.2837555e+01 
-1.6731077e-01 6.3101834e-01 4.2902817e+01 
1.4768846e-01 4.5400122e-01 4.3051926e+01 
-2.7610970e-01 7.1575516e-01 4.2831745e+01 
-3.1966189e-01 9.2221189e-01 4.2773579e+01 
-3.8560396e-01 8.3684862e-01 4.2767078e+01 
3.7660085e-02 6.4738947e-01 4.2866421e+01 
-7.3788933e-02 7.6323271e-01 4.2794899e+01 
4.3868470e-01 3.4116083e-01 4.3168777e+01 
-4.3632543e-01 9.6404779e-01 4.2709122e+01 
-2.0968946e-02 5.3986710e-01 4.2827656e+01 
-1.8011902e-01 8.4562629e-01 4.2725094e+01 
-1.6385415e-01 6.2714905e-01 4.2753403e+01 
-2.7453732e-01 7.1328926e-01 4.2680973e+01 
-3.1850323e-01 9.2250693e-01 4.2644733e+01 
-3.9907700e-01 8.5570478e-01 4.2643101e+01 
2.5504474e-02 6.6361672e-01 4.2734810e+01 
1.8471870e-01 5.0880390e-01 4.2796177e+01 
-6.8898737e-02 7.6156229e-01 4.2646645e+01 
-3.9438177e-02 5.4903054e-01 4.2692345e+01 
-4.3632481e-01 9.6404403e-01 4.2579861e+01 
4.5063871e-01 3.3281663e-01 4.2962532e+01 
1.6565691e-01 4.4095638e-01 4.2756321e+01 
-1.7682223e-01 8.4547096e-01 4.2575459e+01 
-1.6029853e-01 6.2318206e-01 4.2601143e+01 
-4.0415615e-01 8.6278629e-01 4.2516582e+01 
-3.1733403e-01 9.2279470e-01 4.2515053e+01 
-2.7293649e-01 7.1077597e-01 4.2527313e+01 
5.0482783e-02 6.3954860e-01 4.2569923e+01 
-4.3632418e-01 9.6404034e-01 4.2449757e+01 
-6.3893095e-02 7.5981271e-01 4.2495445e+01 
-8.6617703e-03 5.2904755e-01 4.2523201e+01 
-1.7346917e-01 8.4530097e-01 4.2422829e+01 
-1.5663996e-01 6.1911333e-01 4.2445942e+01 
3.0435190e-01 4.1341871e-01 4.2643494e+01 
4.6257737e-01 3.2445681e-01 4.2756287e+01 
-3.1615424e-01 9.2307472e-01 4.2384518e+01 
-3.9902648e-01 8.5475212e-01 4.2382885e+01 
-2.7130640e-01 7.0821363e-01 4.2370659e+01 
3.8079392e-02 6.5619886e-01 4.2433029e+01 
2.0230262e-01 4.9620378e-01 4.2497147e+01 
-4.3632355e-01 9.6403670e-01 4.2318787e+01 
-5.8768708e-02 7.5797862e-01 4.2341198e+01 
-2.7680276e-02 5.3838593e-01 4.2382599e+01 
1.8486446e-01 4.2715022e-01 4.2449394e+01 
-3.8436696e-01 8.3356136e-01 4.2264896e+01 
8.9545198e-02 5.3233254e-01 4.2382050e+01 
-3.3225983e-01 9.3122375e-01 4.2255634e+01 
-1.7005907e-01 8.4511453e-01 4.2267101e+01 
-1.5287429e-01 6.1493850e-01 4.2287693e+01 
4.7449806e-01 3.1607881e-01 4.2550037e+01 
-2.6964626e-01 7.0560038e-01 4.2210907e+01 
-4.3632296e-01 9.6403313e-01 4.2186939e+01 
6.4036883e-02 6.3103610e-01 4.2261456e+01 
-5.3522192e-02 7.5605446e-01 4.2183796e+01 
-3.7873057e-01 8.2541841e-01 4.2124020e+01 
-3.1376252e-01 9.2360973e-01 4.2120819e+01 
4.4639236e-03 5.1760370e-01 4.2206776e+01 
-1.6659111e-01 8.4490943e-01 4.2108162e+01 
-1.4899719e-01 6.1065292e-01 4.2126286e+01 
-4.3632239e-01 9.6402961e-01 4.2054195e+01 
4.8639825e-01 3.0768004e-01 4.2343792e+01 
-2.6795524e-01 7.0293444e-01 4.2047943e+01 
2.4746621e-01 4.6040925e-01 4.2191032e+01 
7.1105182e-02 6.2650448e-01 4.2102463e+01 
-3.1255043e-01 9.2386365e-01 4.1987617e+01 
-4.8150036e-02 7.5403398e-01 4.2023121e+01 
-1.5144684e-02 5.2712250e-01 4.2060505e+01 
-3.7995064e-01 8.2661813e-01 4.1980038e+01 
2.0541981e-01 4.1251117e-01 4.2130333e+01 
-1.6306458e-01 8.4468329e-01 4.1945896e+01 
-4.3632182e-01 9.6402621e-01 4.1920536e+01 
-1.4500406e-01 6.0625184e-01 4.1961609e+01 
1.3375351e-01 5.6370503e-01 4.1969833e+01 
-2.6623246e-01 7.0021385e-01 4.1881653e+01 
-3.1132740e-01 9.2410773e-01 4.1853493e+01 
-3.9880505e-01 8.5261923e-01 4.1851868e+01 
4.9827534e-01 2.9925787e-01 4.2137547e+01 
3.4194937e-01 3.8685825e-01 4.2025021e+01 
-4.2648647e-02 7.5191063e-01 4.1859051e+01 
-2.5401810e-01 7.9503769e-01 4.1808533e+01 
1.8480448e-02 5.0547802e-01 4.1877510e+01 
-4.3632126e-01 9.6402287e-01 4.1785946e+01 
-1.5947884e-01 8.4443361e-01 4.1780174e+01 
-1.4089009e-01 6.0172999e-01 4.1793541e+01 
-3.1009343e-01 9.2434150e-01 4.1718426e+01 
-4.0306881e-01 8.5845691e-01 4.1716179e+01 
8.5861288e-02 6.1683756e-01 4.1774368e+01 
-2.6447710e-01 6.9743657e-01 4.1711910e+01 
3.0427080e-01 4.1638452e-01 4.1839512e+01 
2.6751360e-01 3.7833902e-01 4.1830902e+01 
5.1012677e-01 2.9080975e-01 4.1931297e+01 
-3.7014309e-02 7.4967718e-01 4.1691463e+01 
-4.3632072e-01 9.6401966e-01 4.1650398e+01 
2.5847588e-02 4.9913955e-01 4.1707767e+01 
-1.5583332e-01 8.4415752e-01 4.1610870e+01 
-3.8322043e-01 8.2981020e-01 4.1595791e+01 
-3.0884841e-01 9.2456430e-01 4.1582397e+01 
-1.3665022e-01 5.9708190e-01 4.1621960e+01 
9.3565010e-02 6.1167872e-01 4.1605015e+01 
-2.6268822e-01 6.9460052e-01 4.1538593e+01 
-4.3632022e-01 9.6401656e-01 4.1513885e+01 
-3.1243213e-02 7.4732590e-01 4.1520226e+01 
2.7603787e-01 3.7115356e-01 4.1624012e+01 
2.8505871e-01 4.3281260e-01 4.1611507e+01 
5.2195001e-01 2.8233302e-01 4.1725052e+01 
3.3468332e-02 4.9260557e-01 4.1534447e+01 
-3.9853087e-01 8.5081697e-01 4.1443768e+01 
-3.2560509e-01 9.3245691e-01 4.1443577e+01 
-1.5212752e-01 8.4385180e-01 4.1437847e+01 
-1.3227913e-01 5.9230179e-01 4.1446728e+01 
-4.3631971e-01 9.6401358e-01 4.1376381e+01 
[...]
POINT_DATA 6166
FIELD FieldData 5
DISPLACEMENT 3 6166  float
9.7489828e-01 8.9235705e-01 -3.3054408e-02 
9.6916264e-01 8.8657302e-01 -3.2778192e-02 
9.7482443e-01 8.9228016e-01 -3.6062792e-02 
9.7497702e-01 8.9243937e-01 -2.9551059e-02 
9.6621931e-01 8.8360256e-01 -3.5505742e-02 
9.6660483e-01 8.8399655e-01 -2.9106408e-02 
9.6339524e-01 8.8075691e-01 -3.2500416e-02 
9.7477412e-01 8.9222777e-01 -3.8063772e-02 
9.7498262e-01 8.9244539e-01 -2.9146405e-02 
9.6892631e-01 8.8633049e-01 -3.7909083e-02 
9.6894813e-01 8.8635993e-01 -2.8819650e-02 
9.6043426e-01 8.7776858e-01 -3.5294417e-02 
9.6018243e-01 8.7751991e-01 -2.8824244e-02 
9.6297944e-01 8.8033330e-01 -3.7751686e-02 
9.5759541e-01 8.7490821e-01 -3.2221057e-02 
9.7474396e-01 8.9219648e-01 -3.9207090e-02 
9.6281445e-01 8.8017458e-01 -2.8487571e-02 
9.7495681e-01 8.9241862e-01 -3.0101093e-02 
9.6577770e-01 8.8315427e-01 -3.8960360e-02 
9.6573132e-01 8.8311529e-01 -2.9593172e-02 
9.5461655e-01 8.7190175e-01 -3.5081726e-02 
9.5427704e-01 8.7156463e-01 -2.8554661e-02 
9.5693040e-01 8.7423313e-01 -3.7591405e-02 
9.5657849e-01 8.7388605e-01 -2.8150059e-02 
9.5176274e-01 8.6902636e-01 -3.1940103e-02 
9.5977700e-01 8.7710279e-01 -3.8806595e-02 
9.7473752e-01 8.9218986e-01 -3.9324876e-02 
9.5954436e-01 8.7687624e-01 -2.9273899e-02 
9.7490585e-01 8.9236563e-01 -3.2116491e-02 
9.4876564e-01 8.6600143e-01 -3.4867603e-02 
9.4883639e-01 8.6607796e-01 -2.8517708e-02 
9.5077604e-01 8.6802673e-01 -3.7428066e-02 
9.6270752e-01 8.8005811e-01 -3.8947705e-02 
9.5367253e-01 8.7094671e-01 -3.8649887e-02 
9.5023710e-01 8.6749136e-01 -2.7807003e-02 
9.6254301e-01 8.7989831e-01 -3.1676102e-02 
9.6789742e-01 8.8529199e-01 -3.9016131e-02 
9.5325351e-01 8.7053245e-01 -2.8949862e-02 
9.4589663e-01 8.6311090e-01 -3.1657554e-02 
9.6797794e-01 8.8537818e-01 -3.3092547e-02 
9.5728260e-01 8.7458718e-01 -3.8851310e-02 
9.5695657e-01 8.7426513e-01 -3.1024439e-02 
9.7472876e-01 8.9218104e-01 -3.9518178e-02 
9.7483575e-01 8.9229274e-01 -3.4931548e-02 
9.4288105e-01 8.6006743e-01 -3.4652095e-02 
9.4295371e-01 8.6014593e-01 -2.8216958e-02 
9.4451302e-01 8.6171097e-01 -3.7261501e-02 
9.4746101e-01 8.6468267e-01 -3.8489986e-02 
9.4378704e-01 8.6098707e-01 -2.7458152e-02 
9.4685549e-01 8.6408067e-01 -2.8620755e-02 
9.3999648e-01 8.5716140e-01 -3.1373184e-02 
9.5049924e-01 8.6774653e-01 -3.8577471e-02 
9.4996077e-01 8.6721015e-01 -3.1107716e-02 
9.5975935e-01 8.7708461e-01 -3.9194681e-02 
9.6779013e-01 8.8518310e-01 -3.9877757e-02 
9.6780634e-01 8.8520205e-01 -3.6745992e-02 
9.5945913e-01 8.7678546e-01 -3.5062335e-02 
9.3708843e-01 8.5423154e-01 -2.8062513e-02 
9.3696207e-01 8.5409892e-01 -3.4434900e-02 
9.4113904e-01 8.5830736e-01 -3.8326707e-02 
9.4488215e-01 8.6208189e-01 -3.8480800e-02 
9.3813795e-01 8.5528225e-01 -3.7091516e-02 
9.7469801e-01 8.9214921e-01 -4.0631328e-02 
9.7474760e-01 8.9220101e-01 -3.8502771e-02 
9.4034696e-01 8.5751766e-01 -2.8286800e-02 
9.4418204e-01 8.6138332e-01 -3.0434528e-02 
9.3722492e-01 8.5437012e-01 -2.7103707e-02 
9.3406200e-01 8.5117733e-01 -3.1087404e-02 
9.4745642e-01 8.6467767e-01 -3.8805965e-02 
9.3100864e-01 8.4809595e-01 -3.4216560e-02 
9.3108541e-01 8.4817868e-01 -2.7609635e-02 
9.3470323e-01 8.5181749e-01 -3.8159784e-02 
9.4678128e-01 8.6400068e-01 -3.4624487e-02 
9.3164730e-01 8.4873742e-01 -3.6917783e-02 
9.3785626e-01 8.5499686e-01 -3.8190983e-02 
9.3372464e-01 8.5084003e-01 -2.7947783e-02 
9.3054730e-01 8.4763676e-01 -2.6742952e-02 
9.3694329e-01 8.5408366e-01 -3.0525820e-02 
9.2809248e-01 8.4515822e-01 -3.0799758e-02 
9.7461498e-01 8.9206278e-01 -4.3960929e-02 
9.6477818e-01 8.8214236e-01 -4.3660007e-02 
9.2501974e-01 8.4205717e-01 -3.3996589e-02 
9.2509896e-01 8.4214240e-01 -2.7302938e-02 
9.2815006e-01 8.4520972e-01 -3.7988972e-02 
9.3136328e-01 8.4844947e-01 -3.7990861e-02 
9.3096048e-01 8.4805143e-01 -2.9829897e-02 
9.2503738e-01 8.4207278e-01 -3.6739990e-02 
9.2698509e-01 8.4404457e-01 -2.7603596e-02 
9.2208731e-01 8.3910358e-01 -3.0510452e-02 
9.5494133e-01 8.7222213e-01 -4.3358788e-02 
9.3324733e-01 8.5034901e-01 -3.8156275e-02 
9.2375058e-01 8.4078395e-01 -2.6376264e-02 
9.3979305e-01 8.5694885e-01 -3.9492249e-02 
9.3991137e-01 8.5707027e-01 -3.7152126e-02 
9.3366247e-01 8.5077167e-01 -3.4183167e-02 
9.1952187e-01 8.3651984e-01 -2.6687656e-02 
9.1899520e-01 8.3598310e-01 -3.3774536e-02 
9.2475116e-01 8.4178251e-01 -3.7786230e-02 
9.2147571e-01 8.3848023e-01 -3.7814185e-02 
9.4510520e-01 8.6230290e-01 -4.3056913e-02 
9.1830474e-01 8.3528465e-01 -3.6558751e-02 
9.2346352e-01 8.4049237e-01 -2.9930176e-02 
9.2012411e-01 8.3712745e-01 -2.7253574e-02 
9.1604632e-01 8.3301312e-01 -3.0219255e-02 
9.1683090e-01 8.3380753e-01 -2.6003290e-02 
9.2996353e-01 8.4703654e-01 -3.9199766e-02 
9.1871250e-01 8.3569378e-01 -3.7686888e-02 
9.1293418e-01 8.2987309e-01 -3.3551119e-02 
9.1316277e-01 8.3010918e-01 -2.6327280e-02 
9.1467637e-01 8.3162516e-01 -3.7635013e-02 
9.1726369e-01 8.3424211e-01 -2.9209565e-02 
9.3527061e-01 8.5238469e-01 -4.2753335e-02 
9.2150211e-01 8.3850604e-01 -3.7984610e-02 
9.1144508e-01 8.2836920e-01 -3.6372919e-02 
9.0996826e-01 8.2688600e-01 -2.9926077e-02 
9.1313851e-01 8.3008504e-01 -2.6898749e-02 
9.2007583e-01 8.3707267e-01 -3.3740297e-02 
9.0978426e-01 8.2670426e-01 -2.5623988e-02 
9.0683609e-01 8.2372612e-01 -3.3325832e-02 
9.0669596e-01 8.2359004e-01 -2.6075047e-02 
9.1115415e-01 8.2807422e-01 -3.7361585e-02 
9.0774822e-01 8.2464081e-01 -3.7451200e-02 
9.2543668e-01 8.4246808e-01 -4.2449385e-02 
9.0385330e-01 8.2072258e-01 -2.9631577e-02 
9.0949190e-01 8.2640731e-01 -2.9319724e-02 
9.0445465e-01 8.2132268e-01 -3.6182277e-02 
9.0602350e-01 8.2291341e-01 -2.6537644e-02 
9.0260732e-01 8.1947029e-01 -2.5238620e-02 
9.0070134e-01 8.1754261e-01 -3.3098444e-02 
9.0078932e-01 8.1763649e-01 -2.6056418e-02 
9.0488410e-01 8.2175314e-01 -3.7259199e-02 
9.0779287e-01 8.2468492e-01 -3.7549950e-02 
9.0068710e-01 8.1752336e-01 -3.7262011e-02 
9.0306097e-01 8.1992555e-01 -2.8572798e-02 
8.9770174e-01 8.1452256e-01 -2.9335860e-02 
9.1560680e-01 8.3255762e-01 -4.2144608e-02 
9.0599102e-01 8.2287306e-01 -3.3294812e-02 
8.9732963e-01 8.1414181e-01 -3.5986714e-02 
8.9877677e-01 8.1560934e-01 -2.6172090e-02 
8.9476651e-01 8.1156719e-01 -2.5866795e-02 
8.9452934e-01 8.1132334e-01 -3.2870233e-02 
8.9529634e-01 8.1210166e-01 -2.4845969e-02 
8.9703476e-01 8.1384182e-01 -3.6913931e-02 
8.9151222e-01 8.0828518e-01 -2.9037733e-02 
8.9349008e-01 8.1027013e-01 -3.7067536e-02 
8.9499885e-01 8.1180018e-01 -2.8695542e-02 
8.9006567e-01 8.0682170e-01 -3.5786003e-02 
8.9139444e-01 8.0816954e-01 -2.5799410e-02 
9.0049422e-01 8.1732708e-01 -3.8316023e-02 
9.0578157e-01 8.2265365e-01 -4.1838616e-02 
8.8831896e-01 8.0506444e-01 -3.2640193e-02 
8.8841146e-01 8.0516267e-01 -2.5422545e-02 
8.8784653e-01 8.0459487e-01 -2.4446227e-02 
8.9051920e-01 8.0727601e-01 -3.6808584e-02 
8.9355540e-01 8.1033522e-01 -3.7096985e-02 
8.8528442e-01 8.0200994e-01 -2.8738586e-02 
8.8615054e-01 8.0287451e-01 -3.6868371e-02 
8.8832289e-01 8.0507356e-01 -2.7920458e-02 
8.9137846e-01 8.0814654e-01 -3.2847952e-02 
8.8280898e-01 7.9951787e-01 -2.4837829e-02 
8.8817036e-01 8.0491334e-01 -3.3202715e-02 
8.8220179e-01 7.9890138e-01 -3.1968448e-02 
8.8265812e-01 7.9935795e-01 -3.5579924e-02 
8.8386923e-01 8.0058801e-01 -2.5422165e-02 
8.9596057e-01 8.1275356e-01 -4.1529629e-02 
8.8025343e-01 7.9694545e-01 -2.4040699e-02 
8.7901902e-01 7.9569811e-01 -2.8437588e-02 
8.8235831e-01 7.9905307e-01 -3.6442425e-02 
8.7866575e-01 7.9533303e-01 -3.6662754e-02 
8.7611735e-01 7.9277796e-01 -2.4397014e-02 
8.7578446e-01 7.9243594e-01 -3.2172836e-02 
8.7994909e-01 7.9663682e-01 -2.8056063e-02 
8.7510312e-01 7.9174685e-01 -3.5369113e-02 
8.7619829e-01 7.9286110e-01 -2.5037484e-02 
8.7271452e-01 7.8934741e-01 -2.8134182e-02 
8.8614482e-01 8.0286258e-01 -4.1219652e-02 
8.7251276e-01 7.8914863e-01 -2.3627667e-02 
8.7898713e-01 7.9565662e-01 -3.6829088e-02 
8.7480152e-01 7.9143918e-01 -3.6197156e-02 
8.6945790e-01 7.8606498e-01 -3.1936776e-02 
8.7103021e-01 7.8764158e-01 -3.6450181e-02 
8.7301183e-01 7.8964972e-01 -2.7251521e-02 
8.6927962e-01 7.8589183e-01 -2.4071349e-02 
8.7620205e-01 7.9285568e-01 -3.2399457e-02 
8.6739546e-01 7.8398347e-01 -3.5151295e-02 
8.6636913e-01 7.8295779e-01 -2.7828466e-02 
8.6837834e-01 7.8498602e-01 -2.4648737e-02 
8.6849970e-01 7.8509295e-01 -3.5863522e-02 
8.6462069e-01 7.8120202e-01 -2.3208382e-02 
8.6309183e-01 7.7965504e-01 -3.1697698e-02 
8.6319166e-01 7.7976120e-01 -2.4132045e-02 
8.7633961e-01 7.9298538e-01 -4.0908135e-02 
8.7107456e-01 7.8768480e-01 -3.7415303e-02 
8.6324096e-01 7.7979702e-01 -3.6230579e-02 
8.6103588e-01 7.7758783e-01 -2.8150430e-02 
8.6430937e-01 7.8088599e-01 -2.7402321e-02 
8.5998583e-01 7.7653223e-01 -2.7521521e-02 
8.5953218e-01 7.7606696e-01 -3.4924150e-02 
8.6040598e-01 7.7695912e-01 -2.4256097e-02 
8.5668689e-01 7.7320784e-01 -3.1457022e-02 
8.5675800e-01 7.7328610e-01 -2.3905488e-02 
8.5922444e-01 7.7575254e-01 -3.5679735e-02 
8.5657328e-01 7.7310228e-01 -2.2783311e-02 
8.6227870e-01 7.7882707e-01 -3.6616709e-02 
8.6195189e-01 7.7850306e-01 -3.3036642e-02 
8.6653835e-01 7.8311145e-01 -4.0592175e-02 
8.5529459e-01 7.7179676e-01 -3.6003038e-02 
8.5356337e-01 7.7006900e-01 -2.7215069e-02 
8.5625941e-01 7.7278316e-01 -2.7072320e-02 
8.5150933e-01 7.6799119e-01 -3.4691118e-02 
8.5106444e-01 7.6755726e-01 -2.3213306e-02 
8.5024536e-01 7.6672560e-01 -3.1212848e-02 
8.5227460e-01 7.6877695e-01 -2.3854088e-02 
8.5119957e-01 7.6767451e-01 -3.5412021e-02 
8.4836823e-01 7.6484573e-01 -2.2350166e-02 
8.4710544e-01 7.6356936e-01 -2.6906738e-02 
8.4718359e-01 7.6363486e-01 -3.5767891e-02 
8.5214394e-01 7.6863068e-01 -3.2631192e-02 
8.5147661e-01 7.6795334e-01 -3.5969377e-02 
8.5675049e-01 7.7325624e-01 -4.0274069e-02 
8.4804928e-01 7.6452219e-01 -2.6737452e-02 
8.4387058e-01 7.6031721e-01 -2.3150070e-02 
8.4369153e-01 7.6013029e-01 -3.0479217e-02 
8.4331959e-01 7.5975269e-01 -3.4452442e-02 
8.4398276e-01 7.6043588e-01 -2.3448873e-02 
8.4060496e-01 7.5703061e-01 -2.6594622e-02 
8.4420383e-01 7.6063633e-01 -3.5065301e-02 
8.3999807e-01 7.5642711e-01 -2.1911412e-02 
8.3890587e-01 7.5530809e-01 -3.5525180e-02 
8.3724290e-01 7.5364590e-01 -3.0722644e-02 
8.3734787e-01 7.5375944e-01 -2.2818591e-02 
8.3967531e-01 7.5610000e-01 -2.6399901e-02 
8.4281456e-01 7.5924450e-01 -3.2560434e-02 
8.4697777e-01 7.6342052e-01 -3.9954245e-02 
8.3496147e-01 7.5134635e-01 -3.4205735e-02 
8.4123510e-01 7.5765002e-01 -3.5886243e-02 
8.3406365e-01 7.5045490e-01 -2.6278574e-02 
8.3552408e-01 7.5193059e-01 -2.3037635e-02 
8.3558458e-01 7.5196856e-01 -3.4749817e-02 
8.3067912e-01 7.4704868e-01 -3.0472770e-02 
8.3078593e-01 7.4716634e-01 -2.2485366e-02 
8.3145899e-01 7.4784291e-01 -2.1464519e-02 
8.3045489e-01 7.4681067e-01 -3.5274722e-02 
8.3113229e-01 7.4751210e-01 -2.6058909e-02 
8.2748199e-01 7.4384207e-01 -2.5963854e-02 
8.3347017e-01 7.4984980e-01 -3.1883132e-02 
8.3722168e-01 7.5360614e-01 -3.9630521e-02 
8.2642651e-01 7.4276721e-01 -3.3951133e-02 
8.2689261e-01 7.4325657e-01 -2.2620166e-02 
8.3176702e-01 7.4813002e-01 -3.5649654e-02 
8.2407576e-01 7.4041253e-01 -3.0220415e-02 
8.2418531e-01 7.4053383e-01 -2.2151276e-02 
8.2660294e-01 7.4294072e-01 -3.4440540e-02 
8.2274413e-01 7.3908818e-01 -2.1010214e-02 
8.2086068e-01 7.3718911e-01 -2.5649359e-02 
8.2182378e-01 7.3813796e-01 -3.5015535e-02 
8.2241344e-01 7.3875213e-01 -2.5714507e-02 
8.1743377e-01 7.3374081e-01 -2.9966844e-02 
8.1754375e-01 7.3386091e-01 -2.1813555e-02 
8.1770861e-01 7.3401052e-01 -3.3689577e-02 
8.2748365e-01 7.4381471e-01 -3.9303247e-02 
8.1808287e-01 7.3440903e-01 -2.2196662e-02 
8.2244128e-01 7.3876715e-01 -3.1142121e-02 
8.2237560e-01 7.3869115e-01 -3.5428926e-02 
8.1419766e-01 7.3049796e-01 -2.5329283e-02 
8.1747437e-01 7.3377001e-01 -3.4122843e-02 
8.1384850e-01 7.3015726e-01 -2.0550374e-02 
8.1300890e-01 7.2928530e-01 -3.4745645e-02 
8.1485581e-01 7.3116136e-01 -2.6038243e-02 
8.1074595e-01 7.2702742e-01 -2.9711151e-02 
8.1086081e-01 7.2715491e-01 -2.1480447e-02 
8.0880427e-01 7.2507119e-01 -3.3416908e-02 
8.1776214e-01 7.3404443e-01 -3.8980488e-02 
8.0749381e-01 7.2377259e-01 -2.5014902e-02 
8.0909204e-01 7.2538418e-01 -2.1767110e-02 
8.1284446e-01 7.2911775e-01 -3.5082035e-02 
8.1186420e-01 7.2814232e-01 -3.1482328e-02 
8.0831200e-01 7.2457016e-01 -3.3806313e-02 
8.0402118e-01 7.2028071e-01 -2.9457096e-02 
8.0413437e-01 7.2040838e-01 -2.1143774e-02 
8.0477071e-01 7.2104776e-01 -2.0079821e-02 
8.0400515e-01 7.2024864e-01 -3.4465451e-02 
8.0577785e-01 7.2204906e-01 -2.6102170e-02 
8.0074662e-01 7.1700406e-01 -2.4696352e-02 
7.9971230e-01 7.1594733e-01 -3.3134714e-02 
7.9959506e-01 7.1584630e-01 -2.5451234e-02 
8.0806154e-01 7.2430474e-01 -3.8652979e-02 
7.9991412e-01 7.1617746e-01 -2.1331660e-02 
8.0341429e-01 7.1965104e-01 -3.4597915e-02 
7.9725349e-01 7.1349293e-01 -2.9193329e-02 
7.9736608e-01 7.1361834e-01 -2.0803265e-02 
7.9907042e-01 7.1529746e-01 -3.3498686e-02 
8.0223233e-01 7.1847403e-01 -3.1453542e-02 
7.9550111e-01 7.1175224e-01 -1.9605359e-02 
7.9395956e-01 7.1019709e-01 -2.4371337e-02 
7.9480577e-01 7.1102154e-01 -3.4176387e-02 
7.9636765e-01 7.1261233e-01 -2.5795691e-02 
7.9044133e-01 7.0666313e-01 -2.8933303e-02 
7.9056078e-01 7.0679635e-01 -2.0464262e-02 
7.9041350e-01 7.0662725e-01 -3.2840867e-02 
7.9837656e-01 7.1458471e-01 -3.8323537e-02 
7.9054201e-01 7.0678282e-01 -2.0891063e-02 
7.9394233e-01 7.1014959e-01 -3.4246132e-02 
7.8712869e-01 7.0335293e-01 -2.4050785e-02 
7.8970754e-01 7.0591122e-01 -3.3176672e-02 
7.9279047e-01 7.0900428e-01 -3.1546652e-02 
7.8564817e-01 7.0186633e-01 -2.7049294e-02 
7.8603411e-01 7.0226753e-01 -1.9118378e-02 
7.8540283e-01 7.0159829e-01 -3.3874683e-02 
7.8358871e-01 6.9980127e-01 -2.8671341e-02 
7.8665173e-01 7.0287567e-01 -2.5667863e-02 
7.8288734e-01 6.9911128e-01 -1.9737085e-02 
7.8091401e-01 6.9711053e-01 -3.2539923e-02 
7.8025275e-01 6.9646889e-01 -2.3725798e-02 
7.8872019e-01 7.0490414e-01 -3.7989344e-02 
7.8100336e-01 6.9722903e-01 -2.0943319e-02 
7.8414822e-01 7.0033759e-01 -3.3779614e-02 
7.8051847e-01 6.9670403e-01 -3.2917142e-02 
7.8365880e-01 6.9985312e-01 -3.2106262e-02 
7.7671391e-01 6.9291908e-01 -2.8376805e-02 
7.7683401e-01 6.9305229e-01 -1.9790560e-02 
7.7636486e-01 6.9258565e-01 -1.8626362e-02 
7.7583635e-01 6.9201994e-01 -3.3561010e-02 
7.7338356e-01 6.8959236e-01 -2.3404021e-02 
7.7506691e-01 6.9127530e-01 -2.5333555e-02 
7.7128160e-01 6.8747085e-01 -3.2230888e-02 
7.7909720e-01 6.9526625e-01 -3.7648443e-02 
7.6986670e-01 6.8606383e-01 -2.8062901e-02 
7.6999056e-01 6.8620133e-01 -1.9473279e-02 
7.7132714e-01 6.8754458e-01 -1.9918952e-02 
7.7404886e-01 6.9023156e-01 -3.1775188e-02 
7.7242917e-01 6.8860549e-01 -3.3409480e-02 
7.6924229e-01 6.8542099e-01 -3.2507382e-02 
7.6656038e-01 6.8276370e-01 -2.3087358e-02 
7.6673949e-01 6.8295389e-01 -1.8133095e-02 
7.6628679e-01 6.8246448e-01 -3.3255916e-02 
7.6610196e-01 6.8231130e-01 -2.3245722e-02 
7.6307017e-01 6.7926520e-01 -2.7746927e-02 
7.6282084e-01 6.7902839e-01 -1.8749001e-02 
7.6180732e-01 6.7799139e-01 -3.1923465e-02 
7.6949561e-01 6.8565750e-01 -3.7307166e-02 
7.6177239e-01 6.7798978e-01 -1.9385727e-02 
7.5978440e-01 6.7598784e-01 -2.2768972e-02 
7.6117778e-01 6.7735237e-01 -3.2285109e-02 
7.6366478e-01 6.7985326e-01 -2.8975138e-02 
7.6438802e-01 6.8056232e-01 -3.3940136e-02 
7.6050830e-01 6.7668349e-01 -3.2232918e-02 
7.5725651e-01 6.7347276e-01 -1.7656356e-02 
7.5631523e-01 6.7251271e-01 -2.7430778e-02 
7.5644112e-01 6.7265159e-01 -1.8848859e-02 
7.5689417e-01 6.7306751e-01 -3.2947537e-02 
7.5662708e-01 6.7283887e-01 -2.2621298e-02 
7.5305682e-01 6.6926610e-01 -2.2456706e-02 
7.5248903e-01 6.6867405e-01 -3.1611376e-02 
7.5992054e-01 6.7608315e-01 -3.6975347e-02 
7.5236428e-01 6.6858768e-01 -1.8866980e-02 
7.5051230e-01 6.6673046e-01 -1.8069176e-02 
7.4961644e-01 6.6582000e-01 -2.7113553e-02 
7.5186872e-01 6.6804272e-01 -3.1988375e-02 
7.5482714e-01 6.7100120e-01 -3.3607803e-02 
7.5489128e-01 6.7107189e-01 -3.1110410e-02 
7.4791908e-01 6.6414315e-01 -1.7189184e-02 
7.5133836e-01 6.6753298e-01 -2.6685480e-02 
7.4765444e-01 6.6383481e-01 -3.2638606e-02 
7.4638265e-01 6.6259611e-01 -2.2144519e-02 
7.4962837e-01 6.6580439e-01 -3.1838104e-02 
7.4729937e-01 6.6352099e-01 -2.2013944e-02 
7.4296182e-01 6.5917063e-01 -2.6801428e-02 
7.4332058e-01 6.5951800e-01 -3.1304371e-02 
7.5035679e-01 6.6651928e-01 -3.6624808e-02 
7.4310035e-01 6.5933746e-01 -1.8361157e-02 
7.4188739e-01 6.5811682e-01 -1.7566960e-02 
7.4271309e-01 6.5889943e-01 -3.1694140e-02 
7.3974675e-01 6.5597510e-01 -2.1838183e-02 
7.4528205e-01 6.6145647e-01 -3.3272643e-02 
7.4534291e-01 6.6152495e-01 -3.0777028e-02 
7.3872250e-01 6.5496612e-01 -1.6731245e-02 
7.3856574e-01 6.5476274e-01 -3.2330446e-02 
7.3635179e-01 6.5257776e-01 -2.6484899e-02 
7.3647964e-01 6.5271795e-01 -1.7937761e-02 
7.4025232e-01 6.5646684e-01 -2.5555523e-02 
7.4011528e-01 6.5630412e-01 -3.1481225e-02 
7.3811519e-01 6.5435630e-01 -2.1423575e-02 
7.3511708e-01 6.5135580e-01 -2.1597043e-02 
7.3430556e-01 6.5052414e-01 -3.0995533e-02 
7.3316395e-01 6.4940763e-01 -2.1535458e-02 
7.4082398e-01 6.5699250e-01 -3.6273938e-02 
7.3311198e-01 6.4936668e-01 -1.6611706e-02 
7.3398024e-01 6.5023834e-01 -1.7869808e-02 
7.3370987e-01 6.4991546e-01 -3.1401865e-02 
7.3577499e-01 6.5196776e-01 -3.2932650e-02 
7.3583186e-01 6.5203422e-01 -3.0442575e-02 
7.2979581e-01 6.4604378e-01 -2.6170274e-02 
7.2991592e-01 6.4617586e-01 -1.7643634e-02 
7.2961539e-01 6.4586461e-01 -2.3595981e-02 
7.2966391e-01 6.4593464e-01 -1.6289981e-02 
7.2971904e-01 6.4596593e-01 -2.4795951e-02 
7.2963363e-01 6.4585209e-01 -3.2018255e-02 
7.3076767e-01 6.4701247e-01 -2.5239263e-02 
7.3063898e-01 6.4685369e-01 -3.1121615e-02 
7.2907704e-01 6.4534497e-01 -2.0855907e-02 
7.2663248e-01 6.4289904e-01 -2.1229526e-02 
7.2657704e-01 6.4285553e-01 -1.6321281e-02 
7.2544003e-01 6.4168686e-01 -3.0677540e-02 
7.2406751e-01 6.4034909e-01 -1.7699722e-02 
7.2499377e-01 6.4128602e-01 -1.7387487e-02 
7.3132885e-01 6.4752060e-01 -3.5919577e-02 
7.2404540e-01 6.4032137e-01 -2.1139033e-02 
7.2328883e-01 6.3955802e-01 -2.5855582e-02 
7.2486198e-01 6.4109826e-01 -3.1117966e-02 
7.2630501e-01 6.4253086e-01 -3.2590639e-02 
7.2635847e-01 6.4259523e-01 -3.0106191e-02 
7.2015262e-01 6.3644624e-01 -2.0935399e-02 
7.2075033e-01 6.3705915e-01 -1.5856167e-02 
7.2083741e-01 6.3709211e-01 -3.1706318e-02 
7.2017449e-01 6.3648057e-01 -2.0285808e-02 
7.2131926e-01 6.3759762e-01 -2.4931878e-02 
7.2119772e-01 6.3744813e-01 -3.0768381e-02 
7.1683502e-01 6.3313299e-01 -2.5548050e-02 
7.1730280e-01 6.3361138e-01 -2.1203093e-02 
7.1695310e-01 6.3327026e-01 -1.7070146e-02 
7.1671742e-01 6.3299978e-01 -3.0370325e-02 
7.1614844e-01 6.3247806e-01 -1.6919091e-02 
7.2187370e-01 6.3809955e-01 -3.5560314e-02 
7.1615326e-01 6.3242513e-01 -3.0825634e-02 
7.1371984e-01 6.3004595e-01 -2.0637015e-02 
7.1366388e-01 6.3000172e-01 -1.5732670e-02 
7.1214795e-01 6.2846774e-01 -2.4500594e-02 
7.1219671e-01 6.2848866e-01 -3.1396005e-02 
7.1196789e-01 6.2831938e-01 -1.5434105e-02 
7.1687508e-01 6.3313895e-01 -3.2244846e-02 
7.1692550e-01 6.3320059e-01 -2.9765600e-02 
7.1112072e-01 6.2745911e-01 -2.0902615e-02 
7.1080756e-01 6.2714249e-01 -2.3483709e-02 
7.1042258e-01 6.2675583e-01 -2.5239438e-02 
7.1054333e-01 6.2689698e-01 -1.6784595e-02 
7.1140414e-01 6.2775618e-01 -1.9739004e-02 
7.1190381e-01 6.2823093e-01 -2.4612967e-02 
7.1178865e-01 6.2808561e-01 -3.0408248e-02 
7.0814133e-01 6.2446803e-01 -3.0058503e-02 
7.0733297e-01 6.2369931e-01 -2.0345706e-02 
7.0727861e-01 6.2365675e-01 -1.5448891e-02 
7.0744503e-01 6.2382859e-01 -1.6466441e-02 
7.0758283e-01 6.2389863e-01 -3.0546701e-02 
7.1245456e-01 6.2872213e-01 -3.5197247e-02 
7.0405889e-01 6.2043226e-01 -2.4933424e-02 
7.0418429e-01 6.2057751e-01 -1.6503168e-02 
7.0367163e-01 6.2004960e-01 -2.2694472e-02 
7.0369381e-01 6.2003624e-01 -3.1086845e-02 
7.0331901e-01 6.1972553e-01 -1.5013001e-02 
7.0747578e-01 6.2378746e-01 -3.1895522e-02 
7.0752382e-01 6.2384707e-01 -2.9422481e-02 
7.0099318e-01 6.1740088e-01 -2.0063529e-02 