# vtk DataFile Version 4.0
vtk output
ASCII
DATASET UNSTRUCTURED_GRID
POINTS 6166 float
-4.3633327e-01 9.6409470e-01 4.4200001e+01 
-4.3633261e-01 9.6409082e-01 4.4079685e+01 
-3.2145375e-01 9.1276109e-01 4.4200001e+01 
-3.8566181e-01 8.4097892e-01 4.4200001e+01 
-3.3069235e-01 9.1895354e-01 4.4019413e+01 
-3.8473952e-01 8.3919770e-01 4.4024357e+01 
-4.3633196e-01 9.6408689e-01 4.3958702e+01 
-2.1293370e-01 8.4677851e-01 4.4200001e+01 
-2.9042658e-01 7.3813015e-01 4.4200001e+01 
-2.1019450e-01 8.4669626e-01 4.4077393e+01 
-2.8909999e-01 7.3605996e-01 4.4073399e+01 
-3.2963324e-01 9.1929907e-01 4.3898094e+01 
-3.8679782e-01 8.4179753e-01 4.3889645e+01 
-2.0740938e-01 8.4661204e-01 4.3952713e+01 
-4.3633130e-01 9.6408290e-01 4.3837040e+01 
-1.1677200e-01 7.7521002e-01 4.4200001e+01 
-2.8775173e-01 7.3395580e-01 4.3944717e+01 
-1.9365783e-01 6.6203654e-01 4.4200001e+01 
-1.1309985e-01 7.7540898e-01 4.4012005e+01 
-1.9181472e-01 6.5888047e-01 4.4006447e+01 
-3.2856464e-01 9.1964108e-01 4.3776085e+01 
-3.8823184e-01 8.4352189e-01 4.3765770e+01 
-2.0457739e-01 8.4652513e-01 4.3825886e+01 
-2.8638119e-01 7.3181647e-01 4.3813885e+01 
-4.3633065e-01 9.6407896e-01 4.3714680e+01 
-1.0911675e-01 7.7426714e-01 4.3886200e+01 
-2.1001574e-02 6.8269837e-01 4.4200001e+01 
-1.8902887e-01 6.5566909e-01 4.3876659e+01 
-7.8887597e-02 5.9015810e-01 4.4200001e+01 
-3.2748649e-01 9.1997939e-01 4.3653378e+01 
-3.9889076e-01 8.5876143e-01 4.3651733e+01 
-2.0169757e-01 8.4643483e-01 4.3696846e+01 
-7.2496021e-03 6.7325598e-01 4.3947758e+01 
-1.0504345e-01 7.7307969e-01 4.3758209e+01 
-2.8498772e-01 7.2964084e-01 4.3680840e+01 
-6.3224643e-02 5.7783771e-01 4.3940754e+01 
3.5808440e-02 6.2679136e-01 4.4056572e+01 
-1.8616955e-01 6.5238589e-01 4.3744686e+01 
-4.3632996e-01 9.6407503e-01 4.3591618e+01 
-9.8678423e-03 5.4892725e-01 4.4055367e+01 
-1.8652271e-02 6.8798620e-01 4.3834026e+01 
-7.9845116e-02 5.8636194e-01 4.3823372e+01 
8.7777540e-02 5.7885915e-01 4.4200001e+01 
5.3622175e-02 5.1732427e-01 4.4200001e+01 
-3.2639861e-01 9.2031354e-01 4.3529953e+01 
-3.9894739e-01 8.5844576e-01 4.3528313e+01 
-1.9876897e-01 8.4634024e-01 4.3565521e+01 
-1.0087753e-01 7.7184403e-01 4.3627972e+01 
-2.8357074e-01 7.2742778e-01 4.3545506e+01 
-1.8323407e-01 6.4902818e-01 4.3610458e+01 
-4.3632931e-01 9.6407109e-01 4.3467831e+01 
3.1033519e-03 6.6751039e-01 4.3691772e+01 
-5.3600248e-02 5.6906003e-01 4.3676846e+01 
1.2436585e-01 5.5082864e-01 4.3886215e+01 
1.7079005e-01 5.1095647e-01 4.4054855e+01 
1.4951277e-01 4.6697062e-01 4.4053665e+01 
1.0028158e-01 4.8915190e-01 4.3877911e+01 
-4.0513036e-01 8.6722642e-01 4.3405304e+01 
-3.2530096e-01 9.2064321e-01 4.3405800e+01 
-9.6616447e-02 7.7055699e-01 4.3495411e+01 
-8.4563000e-03 6.8258613e-01 4.3574005e+01 
-1.9579062e-01 8.4624058e-01 4.3431831e+01 
2.1753120e-01 4.7335833e-01 4.4200001e+01 
2.0360756e-01 4.4289169e-01 4.4200001e+01 
-1.8021962e-01 6.4559317e-01 4.3473904e+01 
-7.0636064e-02 5.7773441e-01 4.3555408e+01 
-2.8212959e-01 7.2517604e-01 4.3407806e+01 
-4.3632865e-01 9.6406716e-01 4.3343307e+01 
1.3810426e-01 5.4143524e-01 4.3628246e+01 
-3.2419339e-01 9.2096806e-01 4.3280907e+01 
-3.9903235e-01 8.5775709e-01 4.3279266e+01 
-9.2257597e-02 7.6921552e-01 4.3360443e+01 
1.1508528e-01 4.7804743e-01 4.3612068e+01 
-1.9276154e-01 8.4613472e-01 4.3295704e+01 
1.4013666e-02 6.6131532e-01 4.3426643e+01 
-1.7712323e-01 6.4207786e-01 4.3334946e+01 
-2.8066361e-01 7.2288430e-01 4.3267666e+01 
-4.3382257e-02 5.5983055e-01 4.3403778e+01 
-4.3632799e-01 9.6406323e-01 4.3218033e+01 
3.7877345e-01 3.8273901e-01 4.4200001e+01 
3.9076596e-01 3.7443376e-01 4.3993755e+01 
-3.2307580e-01 9.2128778e-01 4.3155251e+01 
-3.9906058e-01 8.5738426e-01 4.3153610e+01 
-8.7798268e-02 7.6781619e-01 4.3222996e+01 
1.9689407e-02 6.5803534e-01 4.3290459e+01 
-6.0862999e-02 5.6866169e-01 4.3278019e+01 
-1.8968078e-01 8.4602165e-01 4.3157055e+01 
-1.7394182e-01 6.3847917e-01 4.3193501e+01 
-4.3632734e-01 9.6405929e-01 4.3091995e+01 
4.0275589e-01 3.6612594e-01 4.3787510e+01 
1.2304078e-01 5.5709994e-01 4.3330139e+01 
-2.7917209e-01 7.2055119e-01 4.3125000e+01 
2.5336364e-01 4.4907436e-01 4.3468094e+01 
2.3670304e-01 4.1684708e-01 4.3469433e+01 
1.3086085e-01 4.6634668e-01 4.3336948e+01 
-3.8351217e-01 8.3473074e-01 4.3036392e+01 
-3.2194808e-01 9.2160189e-01 4.3028820e+01 
2.5518833e-02 6.5462554e-01 4.3151749e+01 
-8.3235659e-02 7.6635528e-01 4.3082981e+01 
4.1474071e-01 3.5781288e-01 4.3581264e+01 
-1.8654740e-01 8.4590012e-01 4.3015797e+01 
-3.2522827e-02 5.5011308e-01 4.3120937e+01 
-1.7067213e-01 6.3479382e-01 4.3049488e+01 
-4.3632668e-01 9.6405542e-01 4.2965172e+01 
-2.7765438e-01 7.1817529e-01 4.2979721e+01 
2.6620242e-01 4.4011977e-01 4.3261948e+01 
1.3584816e-02 6.7044950e-01 4.3025066e+01 
-3.2081014e-01 9.2191011e-01 4.2901604e+01 
-3.8160574e-01 8.3169121e-01 4.2902863e+01 
-7.8566879e-02 7.6482886e-01 4.2940315e+01 
-5.0480481e-02 5.5910730e-01 4.2990566e+01 
4.2671782e-01 3.4949207e-01 4.3375019e+01 
1.6821145e-01 5.2049083e-01 4.3083881e+01 
-1.8336046e-01 8.4576881e-01 4.2871841e+01 
-4.3632606e-01 9.6405160e-01 4.2837555e+01 
-1.6731077e-01 6.3101834e-01 4.2902817e+01 
1.4768846e-01 4.5400122e-01 4.3051926e+01 
-2.7610970e-01 7.1575516e-01 4.2831745e+01 
-3.1966189e-01 9.2221189e-01 4.2773579e+01 
-3.8560396e-01 8.3684862e-01 4.2767078e+01 
3.7660085e-02 6.4738947e-01 4.2866421e+01 
-7.3788933e-02 7.6323271e-01 4.2794899e+01 
4.3868470e-01 3.4116083e-01 4.3168777e+01 
-4.3632543e-01 9.6404779e-01 4.2709122e+01 
-2.0968946e-02 5.3986710e-01 4.2827656e+01 
-1.8011902e-01 8.4562629e-01 4.2725094e+01 
-1.6385415e-01 6.2714905e-01 4.2753403e+01 
-2.7453732e-01 7.1328926e-01 4.2680973e+01 
-3.1850323e-01 9.2250693e-01 4.2644733e+01 
-3.9907700e-01 8.5570478e-01 4.2643101e+01 
2.5504474e-02 6.6361672e-01 4.2734810e+01 
1.8471870e-01 5.0880390e-01 4.2796177e+01 
-6.8898737e-02 7.6156229e-01 4.2646645e+01 
-3.9438177e-02 5.4903054e-01 4.2692345e+01 
-4.3632481e-01 9.6404403e-01 4.2579861e+01 
4.5063871e-01 3.3281663e-01 4.2962532e+01 
1.6565691e-01 4.4095638e-01 4.2756321e+01 
-1.7682223e-01 8.4547096e-01 4.2575459e+01 
-1.6029853e-01 6.2318206e-01 4.2601143e+01 
-4.0415615e-01 8.6278629e-01 4.2516582e+01 
-3.1733403e-01 9.2279470e-01 4.2515053e+01 
-2.7293649e-01 7.1077597e-01 4.2527313e+01 
5.0482783e-02 6.3954860e-01 4.2569923e+01 
-4.3632418e-01 9.6404034e-01 4.2449757e+01 
-6.3893095e-02 7.5981271e-01 4.2495445e+01 
-8.6617703e-03 5.2904755e-01 4.2523201e+01 
-1.7346917e-01 8.4530097e-01 4.2422829e+01 
-1.5663996e-01 6.1911333e-01 4.2445942e+01 
3.0435190e-01 4.1341871e-01 4.2643494e+01 
4.6257737e-01 3.2445681e-01 4.2756287e+01 
-3.1615424e-01 9.2307472e-01 4.2384518e+01 
-3.9902648e-01 8.5475212e-01 4.2382885e+01 
-2.7130640e-01 7.0821363e-01 4.2370659e+01 
3.8079392e-02 6.5619886e-01 4.2433029e+01 
2.0230262e-01 4.9620378e-01 4.2497147e+01 
-4.3632355e-01 9.6403670e-01 4.2318787e+01 
-5.8768708e-02 7.5797862e-01 4.2341198e+01 
-2.7680276e-02 5.3838593e-01 4.2382599e+01 
1.8486446e-01 4.2715022e-01 4.2449394e+01 
-3.8436696e-01 8.3356136e-01 4.2264896e+01 
8.9545198e-02 5.3233254e-01 4.2382050e+01 
-3.3225983e-01 9.3122375e-01 4.2255634e+01 
-1.7005907e-01 8.4511453e-01 4.2267101e+01 
-1.5287429e-01 6.1493850e-01 4.2287693e+01 
4.7449806e-01 3.1607881e-01 4.2550037e+01 
-2.6964626e-01 7.0560038e-01 4.2210907e+01 
-4.3632296e-01 9.6403313e-01 4.2186939e+01 
6.4036883e-02 6.3103610e-01 4.2261456e+01 
-5.3522192e-02 7.5605446e-01 4.2183796e+01 
-3.7873057e-01 8.2541841e-01 4.2124020e+01 
-3.1376252e-01 9.2360973e-01 4.2120819e+01 
4.4639236e-03 5.1760370e-01 4.2206776e+01 
-1.6659111e-01 8.4490943e-01 4.2108162e+01 
-1.4899719e-01 6.1065292e-01 4.2126286e+01 
-4.3632239e-01 9.6402961e-01 4.2054195e+01 
4.8639825e-01 3.0768004e-01 4.2343792e+01 
-2.6795524e-01 7.0293444e-01 4.2047943e+01 
2.4746621e-01 4.6040925e-01 4.2191032e+01 
7.1105182e-02 6.2650448e-01 4.2102463e+01 
-3.1255043e-01 9.2386365e-01 4.1987617e+01 
-4.8150036e-02 7.5403398e-01 4.2023121e+01 
-1.5144684e-02 5.2712250e-01 4.2060505e+01 
-3.7995064e-01 8.2661813e-01 4.1980038e+01 
2.0541981e-01 4.1251117e-01 4.2130333e+01 
-1.6306458e-01 8.4468329e-01 4.1945896e+01 
-4.3632182e-01 9.6402621e-01 4.1920536e+01 
-1.4500406e-01 6.0625184e-01 4.1961609e+01 
1.3375351e-01 5.6370503e-01 4.1969833e+01 
-2.6623246e-01 7.0021385e-01 4.1881653e+01 
-3.1132740e-01 9.2410773e-01 4.1853493e+01 
-3.9880505e-01 8.5261923e-01 4.1851868e+01 
4.9827534e-01 2.9925787e-01 4.2137547e+01 
3.4194937e-01 3.8685825e-01 4.2025021e+01 
-4.2648647e-02 7.5191063e-01 4.1859051e+01 
-2.5401810e-01 7.9503769e-01 4.1808533e+01 
1.8480448e-02 5.0547802e-01 4.1877510e+01 
-4.3632126e-01 9.6402287e-01 4.1785946e+01 
-1.5947884e-01 8.4443361e-01 4.1780174e+01 
-1.4089009e-01 6.0172999e-01 4.1793541e+01 
-3.1009343e-01 9.2434150e-01 4.1718426e+01 
-4.0306881e-01 8.5845691e-01 4.1716179e+01 
8.5861288e-02 6.1683756e-01 4.1774368e+01 
-2.6447710e-01 6.9743657e-01 4.1711910e+01 
3.0427080e-01 4.1638452e-01 4.1839512e+01 
2.6751360e-01 3.7833902e-01 4.1830902e+01 
5.1012677e-01 2.9080975e-01 4.1931297e+01 
-3.7014309e-02 7.4967718e-01 4.1691463e+01 
-4.3632072e-01 9.6401966e-01 4.1650398e+01 
2.5847588e-02 4.9913955e-01 4.1707767e+01 
-1.5583332e-01 8.4415752e-01 4.1610870e+01 
-3.8322043e-01 8.2981020e-01 4.1595791e+01 
-3.0884841e-01 9.2456430e-01 4.1582397e+01 
-1.3665022e-01 5.9708190e-01 4.1621960e+01 
9.3565010e-02 6.1167872e-01 4.1605015e+01 
-2.6268822e-01 6.9460052e-01 4.1538593e+01 
-4.3632022e-01 9.6401656e-01 4.1513885e+01 
-3.1243213e-02 7.4732590e-01 4.1520226e+01 
2.7603787e-01 3.7115356e-01 4.1624012e+01 
2.8505871e-01 4.3281260e-01 4.1611507e+01 
5.2195001e-01 2.8233302e-01 4.1725052e+01 
3.3468332e-02 4.9260557e-01 4.1534447e+01 
-3.9853087e-01 8.5081697e-01 4.1443768e+01 
-3.2560509e-01 9.3245691e-01 4.1443577e+01 
-1.5212752e-01 8.4385180e-01 4.1437847e+01 
-1.3227913e-01 5.9230179e-01 4.1446728e+01 
-4.3631971e-01 9.6401358e-01 4.1376381e+01 
[...]
POINT_DATA 6166
FIELD FieldData 5
DISPLACEMENT 3 6166  float
1.4046130e+00 1.2836003e+00 -6.8728290e-02 
1.3962224e+00 1.2751572e+00 -6.8137787e-02 
1.4044143e+00 1.2833453e+00 -7.3127255e-02 
1.4046843e+00 1.2837361e+00 -6.3611746e-02 
1.3918334e+00 1.2706882e+00 -7.2032496e-02 
1.3924359e+00 1.2714117e+00 -6.2689215e-02 
1.3877853e+00 1.2666671e+00 -6.7543954e-02 
1.4042543e+00 1.2831477e+00 -7.6054208e-02 
1.4046149e+00 1.2836738e+00 -6.3023746e-02 
1.3956975e+00 1.2745349e+00 -7.5637788e-02 
1.3957860e+00 1.2747900e+00 -6.2349681e-02 
1.3833696e+00 1.2621701e+00 -7.1535259e-02 
1.3830423e+00 1.2619587e+00 -6.2067561e-02 
1.3869958e+00 1.2657762e+00 -7.5214170e-02 
1.3793007e+00 1.2581295e+00 -6.6946745e-02 
1.4041332e+00 1.2830049e+00 -7.7727742e-02 
1.3868120e+00 1.2657605e+00 -6.1664604e-02 
1.4044995e+00 1.2835401e+00 -6.4421736e-02 
1.3910137e+00 1.2697996e+00 -7.7075265e-02 
1.3910022e+00 1.2699592e+00 -6.3378982e-02 
1.3748580e+00 1.2536039e+00 -7.1034968e-02 
1.3744045e+00 1.2532663e+00 -6.1481148e-02 
1.3781445e+00 1.2568671e+00 -7.4783027e-02 
1.3776884e+00 1.2565804e+00 -6.0968257e-02 
1.3707681e+00 1.2495433e+00 -6.6346131e-02 
1.3822323e+00 1.2609606e+00 -7.6655269e-02 
1.4040462e+00 1.2829151e+00 -7.7902995e-02 
1.3819491e+00 1.2608498e+00 -6.2710941e-02 
1.4043335e+00 1.2833362e+00 -6.7369968e-02 
1.3662980e+00 1.2449890e+00 -7.0531502e-02 
1.3664541e+00 1.2452621e+00 -6.1249580e-02 
1.3691391e+00 1.2478029e+00 -7.4343987e-02 
1.3864368e+00 1.2651913e+00 -7.6960444e-02 
1.3732990e+00 1.2519687e+00 -7.6227576e-02 
1.3684106e+00 1.2472452e+00 -6.0260385e-02 
1.3862356e+00 1.2651218e+00 -6.6324256e-02 
1.3939939e+00 1.2727991e+00 -7.7230938e-02 
1.3727440e+00 1.2515875e+00 -6.2032573e-02 
1.3621864e+00 1.2409081e+00 -6.5742128e-02 
1.3941438e+00 1.2730587e+00 -6.8573497e-02 
1.3785101e+00 1.2572119e+00 -7.6642513e-02 
1.3780764e+00 1.2569187e+00 -6.5189257e-02 
1.4039453e+00 1.2828100e+00 -7.8189000e-02 
1.4041258e+00 1.2830757e+00 -7.1487062e-02 
1.3576884e+00 1.2363248e+00 -7.0024960e-02 
1.3578484e+00 1.2366030e+00 -6.0618449e-02 
1.3599746e+00 1.2385788e+00 -7.3896706e-02 
1.3642089e+00 1.2428193e+00 -7.5791754e-02 
1.3589736e+00 1.2377499e+00 -5.9540514e-02 
1.3633820e+00 1.2421676e+00 -6.1343316e-02 
1.3535550e+00 1.2322232e+00 -6.5134369e-02 
1.3685694e+00 1.2472079e+00 -7.6022118e-02 
1.3678216e+00 1.2465922e+00 -6.5084144e-02 
1.3820176e+00 1.2607371e+00 -7.7229977e-02 
1.3937281e+00 1.2725158e+00 -7.8491539e-02 
1.3937665e+00 1.2726119e+00 -7.3913664e-02 
1.3815945e+00 1.2603869e+00 -7.1179196e-02 
1.3492732e+00 1.2279723e+00 -6.0201503e-02 
1.3490287e+00 1.2276101e+00 -6.9514818e-02 
1.3549572e+00 1.2335074e+00 -7.5347401e-02 
1.3603617e+00 1.2389456e+00 -7.5697534e-02 
1.3506463e+00 1.2291899e+00 -7.3440790e-02 
1.4037960e+00 1.2826393e+00 -7.9819568e-02 
1.4038780e+00 1.2827609e+00 -7.6709427e-02 
1.3538585e+00 1.2325852e+00 -6.0643405e-02 
1.3593816e+00 1.2381068e+00 -6.3911416e-02 
1.3493729e+00 1.2280903e+00 -5.8808867e-02 
1.3448733e+00 1.2234877e+00 -6.4523451e-02 
1.3640091e+00 1.2426120e+00 -7.6261677e-02 
1.3403184e+00 1.2188452e+00 -6.9001958e-02 
1.3404863e+00 1.2191342e+00 -5.9344351e-02 
1.3455390e+00 1.2240280e+00 -7.4894056e-02 
1.3630368e+00 1.2417099e+00 -7.0126958e-02 
1.3411487e+00 1.2196314e+00 -7.2975680e-02 
1.3500656e+00 1.2285845e+00 -7.5045943e-02 
1.3441683e+00 1.2228354e+00 -5.9932429e-02 
1.3396029e+00 1.2182605e+00 -5.8064245e-02 
1.3487705e+00 1.2274220e+00 -6.3810177e-02 
1.3361404e+00 1.2147012e+00 -6.3908704e-02 
1.4035463e+00 1.2823271e+00 -8.4689274e-02 
1.3891469e+00 1.2678336e+00 -8.3929539e-02 
1.3315564e+00 1.2100281e+00 -6.8485528e-02 
1.3317286e+00 1.2103229e+00 -5.8701243e-02 
1.3359489e+00 1.2143766e+00 -7.4431255e-02 
1.3405627e+00 1.2190207e+00 -7.4542284e-02 
1.3400323e+00 1.2186373e+00 -6.2597632e-02 
1.3314767e+00 1.2098980e+00 -7.2500803e-02 
1.3343066e+00 1.2129135e+00 -5.9210125e-02 
1.3273553e+00 1.2058626e+00 -6.3290402e-02 
1.3747475e+00 1.2533405e+00 -8.3169349e-02 
1.3432354e+00 1.2217082e+00 -7.4848920e-02 
1.3296589e+00 1.2082566e+00 -5.7307169e-02 
1.3527063e+00 1.2312193e+00 -7.7019282e-02 
1.3528911e+00 1.2314482e+00 -7.3602177e-02 
1.3438334e+00 1.2223837e+00 -6.9055438e-02 
1.3235570e+00 1.2021083e+00 -5.7621051e-02 
1.3227421e+00 1.2011594e+00 -6.7964986e-02 
1.3308854e+00 1.2092824e+00 -7.4028187e-02 
1.3261817e+00 1.2045473e+00 -7.3958762e-02 
1.3603492e+00 1.2388490e+00 -8.2408249e-02 
1.3216251e+00 1.1999844e+00 -7.2016962e-02 
1.3290428e+00 1.2075728e+00 -6.2501311e-02 
1.3242671e+00 1.2028140e+00 -5.8475431e-02 
1.3185178e+00 1.1969719e+00 -6.2668256e-02 
1.3195349e+00 1.1980721e+00 -5.6536961e-02 
1.3383173e+00 1.2167375e+00 -7.6272264e-02 
1.3220614e+00 1.2004013e+00 -7.3686108e-02 
1.3138746e+00 1.1922382e+00 -6.7441382e-02 
1.3142527e+00 1.1927494e+00 -5.6887537e-02 
1.3162314e+00 1.1945348e+00 -7.3475838e-02 
1.3199877e+00 1.1984707e+00 -6.1245725e-02 
1.3459537e+00 1.2243600e+00 -8.1644826e-02 
1.3260180e+00 1.2043784e+00 -7.4217319e-02 
1.3115878e+00 1.1898847e+00 -7.1522325e-02 
1.3096260e+00 1.1880276e+00 -6.2042065e-02 
1.3140455e+00 1.1925315e+00 -5.7729758e-02 
1.3239452e+00 1.2023705e+00 -6.7966625e-02 
1.3092253e+00 1.1877024e+00 -5.5753507e-02 
1.3049527e+00 1.1832631e+00 -6.6913806e-02 
1.3047957e+00 1.1832352e+00 -5.6308478e-02 
1.3109853e+00 1.1892591e+00 -7.2965592e-02 
1.3060926e+00 1.1843333e+00 -7.2982043e-02 
1.3315589e+00 1.2098730e+00 -8.0880851e-02 
1.3006803e+00 1.1790303e+00 -6.1412822e-02 
1.3085953e+00 1.1870025e+00 -6.1155129e-02 
1.3013591e+00 1.1795938e+00 -7.1016520e-02 
1.3036345e+00 1.1820604e+00 -5.6970816e-02 
1.2987251e+00 1.1771420e+00 -5.4957114e-02 
1.2959772e+00 1.1742346e+00 -6.6382103e-02 
1.2961658e+00 1.1745508e+00 -5.6088801e-02 
1.3018231e+00 1.1800389e+00 -7.2611660e-02 
1.3059506e+00 1.1841874e+00 -7.3136665e-02 
1.2957594e+00 1.1739378e+00 -7.2476149e-02 
1.2992026e+00 1.1775632e+00 -5.9853736e-02 
1.2916811e+00 1.1699795e+00 -6.0780752e-02 
1.3171704e+00 1.1953951e+00 -8.0115870e-02 
1.3033274e+00 1.1816257e+00 -6.6858143e-02 
1.2909335e+00 1.1691067e+00 -7.0499264e-02 
1.2930309e+00 1.1713958e+00 -5.6201261e-02 
1.2873592e+00 1.1656934e+00 -5.5615861e-02 
1.2869474e+00 1.1651540e+00 -6.5848187e-02 
1.2880288e+00 1.1663851e+00 -5.4145813e-02 
1.2903210e+00 1.1684706e+00 -7.1852759e-02 
1.2826263e+00 1.1608744e+00 -6.0144022e-02 
1.2852273e+00 1.1633440e+00 -7.1958326e-02 
1.2873849e+00 1.1656698e+00 -5.9772503e-02 
1.2803047e+00 1.1584165e+00 -6.9970131e-02 
1.2822288e+00 1.1605332e+00 -5.5417016e-02 
1.2951794e+00 1.1733334e+00 -7.4023329e-02 
1.3027890e+00 1.1809272e+00 -7.9349443e-02 
1.2778614e+00 1.1560155e+00 -6.5310322e-02 
1.2780583e+00 1.1563423e+00 -5.4760482e-02 
1.2771295e+00 1.1554264e+00 -5.3319875e-02 
1.2808000e+00 1.1588935e+00 -7.1486883e-02 
1.2851104e+00 1.1632245e+00 -7.2012573e-02 
1.2735157e+00 1.1517137e+00 -5.9504699e-02 
1.2744869e+00 1.1525422e+00 -7.1429111e-02 
1.2776343e+00 1.1558737e+00 -5.8422219e-02 
1.2819374e+00 1.1601110e+00 -6.5731078e-02 
1.2698506e+00 1.1480955e+00 -5.3724725e-02 
1.2773209e+00 1.1554600e+00 -6.6142030e-02 
1.2689252e+00 1.1470380e+00 -6.4129502e-02 
1.2694659e+00 1.1475166e+00 -6.9428675e-02 
1.2712177e+00 1.1494637e+00 -5.4621689e-02 
1.2884139e+00 1.1664652e+00 -7.8579105e-02 
1.2660207e+00 1.1442595e+00 -5.2481070e-02 
1.2643499e+00 1.1424999e+00 -5.8861654e-02 
1.2688416e+00 1.1468698e+00 -7.0687637e-02 
1.2635339e+00 1.1415275e+00 -7.0885964e-02 
1.2600572e+00 1.1382543e+00 -5.2863855e-02 
1.2595232e+00 1.1375772e+00 -6.4220831e-02 
1.2653599e+00 1.1435244e+00 -5.8350045e-02 
1.2584115e+00 1.1364015e+00 -6.8875752e-02 
1.2599936e+00 1.1381818e+00 -5.3810984e-02 
1.2551273e+00 1.1332294e+00 -5.8213986e-02 
1.2740468e+00 1.1520169e+00 -7.7807531e-02 
1.2546960e+00 1.1328776e+00 -5.1626705e-02 
1.2637649e+00 1.1417564e+00 -7.1149781e-02 
1.2577822e+00 1.1357489e+00 -7.0084333e-02 
1.2502675e+00 1.1282753e+00 -6.3671052e-02 
1.2523606e+00 1.1302941e+00 -7.0327930e-02 
1.2552274e+00 1.1333491e+00 -5.6948591e-02 
1.2500557e+00 1.1282032e+00 -5.2166466e-02 
1.2597219e+00 1.1377714e+00 -6.4583927e-02 
1.2471340e+00 1.1250644e+00 -6.8307787e-02 
1.2458448e+00 1.1239022e+00 -5.7561807e-02 
1.2485515e+00 1.1266837e+00 -5.2989870e-02 
1.2485145e+00 1.1264365e+00 -6.9394641e-02 
1.2431500e+00 1.1212771e+00 -5.0758746e-02 
1.2409540e+00 1.1189166e+00 -6.3115641e-02 
1.2411650e+00 1.1192632e+00 -5.2057594e-02 
1.2596955e+00 1.1375890e+00 -7.7034354e-02 
1.2521168e+00 1.1300304e+00 -7.1753137e-02 
1.2409624e+00 1.1188372e+00 -6.9754928e-02 
1.2378994e+00 1.1159093e+00 -5.7866536e-02 
1.2424718e+00 1.1205213e+00 -5.6888640e-02 
1.2365069e+00 1.1145225e+00 -5.6906834e-02 
1.2356291e+00 1.1135039e+00 -6.7721523e-02 
1.2368864e+00 1.1149640e+00 -5.2158516e-02 
1.2315838e+00 1.1095037e+00 -6.2556930e-02 
1.2317572e+00 1.1098135e+00 -5.1518679e-02 
1.2349857e+00 1.1128378e+00 -6.8824179e-02 
1.2313770e+00 1.1094531e+00 -4.9877755e-02 
1.2392809e+00 1.1171385e+00 -7.0299730e-02 
1.2388299e+00 1.1167523e+00 -6.5055802e-02 
1.2453505e+00 1.1231663e+00 -7.6255083e-02 
1.2293347e+00 1.1071533e+00 -6.9165654e-02 
1.2271119e+00 1.1050876e+00 -5.6251716e-02 
1.2306913e+00 1.1086878e+00 -5.6146726e-02 
1.2238909e+00 1.1017112e+00 -6.7121871e-02 
1.2234126e+00 1.1014419e+00 -5.0324287e-02 
1.2221605e+00 1.1000398e+00 -6.1992265e-02 
1.2249891e+00 1.1030180e+00 -5.1308807e-02 
1.2232419e+00 1.1010396e+00 -6.8173990e-02 
1.2193736e+00 1.0974007e+00 -4.8980433e-02 
1.2176653e+00 1.0956002e+00 -5.5593021e-02 
1.2174664e+00 1.0952337e+00 -6.8560310e-02 
1.2244779e+00 1.1023360e+00 -6.4146720e-02 
1.2234967e+00 1.1012861e+00 -6.9003806e-02 
1.2310258e+00 1.1087720e+00 -7.5473480e-02 
1.2186766e+00 1.0966235e+00 -5.5392731e-02 
1.2129021e+00 1.0908812e+00 -4.9999703e-02 
1.2125869e+00 1.0904331e+00 -6.0708363e-02 
1.2119089e+00 1.0896811e+00 -6.6509150e-02 
1.2128572e+00 1.0908400e+00 -5.0449852e-02 
1.2081568e+00 1.0860558e+00 -5.4927725e-02 
1.2129819e+00 1.0907398e+00 -6.7442700e-02 
1.2071290e+00 1.0851116e+00 -4.8070163e-02 
1.2053546e+00 1.0830736e+00 -6.7939088e-02 
1.2031395e+00 1.0809445e+00 -6.0857330e-02 
1.2033608e+00 1.0813094e+00 -4.9305703e-02 
1.2064224e+00 1.0843240e+00 -5.4630231e-02 
1.2108170e+00 1.0886152e+00 -6.3743196e-02 
1.2167238e+00 1.0944067e+00 -7.4690729e-02 
1.1996810e+00 1.0774065e+00 -6.5879710e-02 
1.2084868e+00 1.0862113e+00 -6.8553381e-02 
1.1985887e+00 1.0764579e+00 -5.4255668e-02 
1.2004815e+00 1.0784225e+00 -4.9577318e-02 
1.2003559e+00 1.0780684e+00 -6.6705003e-02 
1.1935381e+00 1.0713134e+00 -6.0281374e-02 
1.1937627e+00 1.0716863e+00 -4.8608355e-02 
1.1946378e+00 1.0725814e+00 -4.7143195e-02 
1.1929896e+00 1.0706649e+00 -6.7301519e-02 
1.1939212e+00 1.0717827e+00 -5.3857904e-02 
1.1889617e+00 1.0668058e+00 -5.3584713e-02 
1.1971534e+00 1.0749114e+00 -6.2452696e-02 
1.2024468e+00 1.0800731e+00 -7.3903553e-02 
1.1871949e+00 1.0648800e+00 -6.5233693e-02 
1.1878536e+00 1.0657591e+00 -4.8690796e-02 
1.1946250e+00 1.0723002e+00 -6.7903563e-02 
1.1838789e+00 1.0616260e+00 -5.9700843e-02 
1.1841083e+00 1.0620059e+00 -4.7908783e-02 
1.1872112e+00 1.0648825e+00 -6.5964848e-02 
1.1818898e+00 1.0598027e+00 -4.6200540e-02 
1.1792773e+00 1.0570954e+00 -5.2913208e-02 
1.1803615e+00 1.0580007e+00 -6.6646054e-02 
1.1811633e+00 1.0589905e+00 -5.3075541e-02 
1.1741636e+00 1.0518867e+00 -5.9117846e-02 
1.1743941e+00 1.0522667e+00 -4.7202948e-02 
1.1744417e+00 1.0520948e+00 -6.4572357e-02 
1.1881968e+00 1.0657738e+00 -7.3112383e-02 
1.1749650e+00 1.0528426e+00 -4.7790498e-02 
1.1810253e+00 1.0587430e+00 -6.1015837e-02 
1.1808753e+00 1.0585068e+00 -6.7280091e-02 
1.1695319e+00 1.0473295e+00 -5.2232586e-02 
1.1738536e+00 1.0514901e+00 -6.5208361e-02 
1.1688777e+00 1.0467671e+00 -4.5244824e-02 
1.1674652e+00 1.0450743e+00 -6.5969668e-02 
1.1700823e+00 1.0478731e+00 -5.3308550e-02 
1.1643814e+00 1.0420868e+00 -5.8530539e-02 
1.1646197e+00 1.0424793e+00 -4.6503320e-02 
1.1614163e+00 1.0390438e+00 -6.3889414e-02 
1.1739715e+00 1.0515058e+00 -7.2329134e-02 
1.1597272e+00 1.0375139e+00 -5.1559810e-02 
1.1618123e+00 1.0396680e+00 -4.6876471e-02 
1.1669310e+00 1.0445292e+00 -6.6468254e-02 
1.1655267e+00 1.0431939e+00 -6.1175890e-02 
1.1604565e+00 1.0380650e+00 -6.4452916e-02 
1.1545455e+00 1.0322388e+00 -5.7945304e-02 
1.1547818e+00 1.0326331e+00 -4.5797598e-02 
1.1556001e+00 1.0334716e+00 -4.4268489e-02 
1.1542933e+00 1.0318801e+00 -6.5273046e-02 
1.1567854e+00 1.0345461e+00 -5.3113464e-02 
1.1498594e+00 1.0276357e+00 -5.0879758e-02 
1.1481174e+00 1.0257241e+00 -6.3187599e-02 
1.1480246e+00 1.0257820e+00 -5.1953204e-02 
1.1597778e+00 1.0372834e+00 -7.1540251e-02 
1.1483862e+00 1.0262283e+00 -4.5948818e-02 
1.1531450e+00 1.0307200e+00 -6.5459624e-02 
1.1446474e+00 1.0223314e+00 -5.7344683e-02 
1.1448834e+00 1.0227239e+00 -4.5085158e-02 
1.1469451e+00 1.0245349e+00 -6.3708790e-02 
1.1514237e+00 1.0290606e+00 -6.0827296e-02 
1.1420423e+00 1.0199051e+00 -4.3281481e-02 
1.1399337e+00 1.0177020e+00 -5.0189503e-02 
1.1408359e+00 1.0184084e+00 -6.4558201e-02 
1.1430155e+00 1.0207646e+00 -5.2366924e-02 
1.1346846e+00 1.0123627e+00 -5.6748636e-02 
1.1349311e+00 1.0127683e+00 -4.4374663e-02 
1.1345165e+00 1.0121187e+00 -6.2462848e-02 
1.1456071e+00 1.0230899e+00 -7.0749760e-02 
1.1346769e+00 1.0125148e+00 -4.5008592e-02 
1.1392882e+00 1.0168481e+00 -6.4644299e-02 
1.1299444e+00 1.0077139e+00 -4.9505144e-02 
1.1332518e+00 1.0108347e+00 -6.2940821e-02 
1.1375959e+00 1.0152124e+00 -6.0664196e-02 
1.1276072e+00 1.0053221e+00 -5.3847481e-02 
1.1281967e+00 1.0060632e+00 -4.2270966e-02 
1.1270814e+00 1.0046513e+00 -6.3819334e-02 
1.1246629e+00 1.0023479e+00 -5.6149449e-02 
1.1287928e+00 1.0065362e+00 -5.1873609e-02 
1.1236947e+00 1.0015444e+00 -4.3070946e-02 
1.1206230e+00 9.9822730e-01 -6.1722517e-02 
1.1198894e+00 9.9766839e-01 -4.8813380e-02 
1.1314797e+00 1.0089556e+00 -6.9954276e-02 
1.1207018e+00 9.9853873e-01 -4.4785306e-02 
1.1249696e+00 1.0025344e+00 -6.3651927e-02 
1.1198241e+00 9.9740642e-01 -6.2270381e-02 
1.1242100e+00 1.0018106e+00 -6.1194018e-02 
1.1146100e+00 9.9230492e-01 -5.5502035e-02 
1.1148582e+00 9.9271250e-01 -4.2957813e-02 
1.1140563e+00 9.9193466e-01 -4.1247994e-02 
1.1130898e+00 9.9067032e-01 -6.3058704e-02 
1.1098448e+00 9.8763412e-01 -4.8127133e-02 
1.1118423e+00 9.8959565e-01 -5.1020551e-02 
1.1065361e+00 9.8415756e-01 -6.0967296e-02 
1.1174028e+00 9.9488550e-01 -6.9151685e-02 
1.1045985e+00 9.8230273e-01 -5.4827861e-02 
1.1048522e+00 9.8271626e-01 -4.2279501e-02 
1.1065763e+00 9.8444015e-01 -4.2983640e-02 
1.1101519e+00 9.8776352e-01 -6.0407229e-02 
1.1078234e+00 9.8540282e-01 -6.2741533e-02 
1.1033303e+00 9.8093617e-01 -6.1316714e-02 
1.0998682e+00 9.7766984e-01 -4.7450401e-02 
1.0999811e+00 9.7788000e-01 -4.0225577e-02 
1.0991266e+00 9.7672588e-01 -6.2312175e-02 
1.0987892e+00 9.7659892e-01 -4.7686428e-02 
1.0946617e+00 9.7238374e-01 -5.4153051e-02 
1.0943531e+00 9.7224027e-01 -4.0997785e-02 
1.0926815e+00 9.7032249e-01 -6.0220357e-02 
1.1033580e+00 9.8085898e-01 -6.8350203e-02 
1.0926067e+00 9.7050107e-01 -4.1905459e-02 
1.0899608e+00 9.6778339e-01 -4.6773113e-02 
1.0915458e+00 9.6916813e-01 -6.0738139e-02 
1.0950364e+00 9.7272712e-01 -5.5987298e-02 
1.0960052e+00 9.7359186e-01 -6.3266024e-02 
1.0904614e+00 9.6808672e-01 -6.0644932e-02 
1.0861150e+00 9.6404576e-01 -3.9233152e-02 
1.0847862e+00 9.6253246e-01 -5.3479467e-02 
1.0850425e+00 9.6294677e-01 -4.0943861e-02 
1.0853940e+00 9.6301377e-01 -6.1566509e-02 
1.0849397e+00 9.6278518e-01 -4.6477593e-02 
1.0801249e+00 9.5797628e-01 -4.6107084e-02 
1.0790564e+00 9.5672536e-01 -5.9472281e-02 
1.0893530e+00 9.6688306e-01 -6.7564748e-02 
1.0788527e+00 9.5678574e-01 -4.0854491e-02 
1.0763527e+00 9.5429444e-01 -3.9621748e-02 
1.0749937e+00 9.5276946e-01 -5.2806977e-02 
1.0779383e+00 9.5558625e-01 -6.0012501e-02 
1.0820209e+00 9.5963550e-01 -6.2480655e-02 
1.0821297e+00 9.5979446e-01 -5.8834564e-02 
1.0724629e+00 9.5043379e-01 -3.8260628e-02 
1.0770640e+00 9.5482993e-01 -5.2254930e-02 
1.0718862e+00 9.4954282e-01 -6.0826033e-02 
1.0703679e+00 9.4824564e-01 -4.5443371e-02 
1.0745474e+00 9.5220596e-01 -5.9727453e-02 
1.0713068e+00 9.4919795e-01 -4.5299731e-02 
1.0652666e+00 9.4306988e-01 -5.2143700e-02 
1.0656513e+00 9.4336468e-01 -5.8737885e-02 
1.0753661e+00 9.5292443e-01 -6.6752099e-02 
1.0653106e+00 9.4329304e-01 -3.9828371e-02 
1.0637397e+00 9.4172531e-01 -3.8620926e-02 
1.0645561e+00 9.4224834e-01 -5.9296697e-02 
1.0606674e+00 9.3858683e-01 -4.4790141e-02 
1.0680615e+00 9.4570416e-01 -6.1692301e-02 
1.0681653e+00 9.4585961e-01 -5.8049202e-02 
1.0590180e+00 9.3704569e-01 -3.7307594e-02 
1.0586004e+00 9.3630767e-01 -6.0092561e-02 
1.0556048e+00 9.3345380e-01 -5.1476285e-02 
1.0558629e+00 9.3386757e-01 -3.8994096e-02 
1.0608742e+00 9.3871349e-01 -5.0259128e-02 
1.0606351e+00 9.3834060e-01 -5.8909584e-02 
1.0578848e+00 9.3583518e-01 -4.4152986e-02 
1.0537055e+00 9.3165541e-01 -4.4304267e-02 
1.0524724e+00 9.3024260e-01 -5.8006864e-02 
1.0510449e+00 9.2900646e-01 -4.4144705e-02 
1.0614263e+00 9.3902189e-01 -6.5941393e-02 
1.0508724e+00 9.2893058e-01 -3.6957186e-02 
1.0519801e+00 9.3002200e-01 -3.8829681e-02 
1.0513984e+00 9.2914468e-01 -5.8589630e-02 
1.0541594e+00 9.3185723e-01 -6.0899876e-02 
1.0542573e+00 9.3200946e-01 -5.7265267e-02 
1.0460230e+00 9.2392439e-01 -5.0814282e-02 
1.0462692e+00 9.2432487e-01 -3.8362466e-02 
1.0456885e+00 9.2363387e-01 -4.7052518e-02 
1.0457759e+00 9.2387092e-01 -3.6384631e-02 
1.0457486e+00 9.2367125e-01 -4.8812296e-02 
1.0455455e+00 9.2330998e-01 -5.9359297e-02 
1.0470048e+00 9.2491579e-01 -4.9504429e-02 
1.0467784e+00 9.2455018e-01 -5.8090683e-02 
1.0446779e+00 9.2269737e-01 -4.3046173e-02 
1.0414985e+00 9.1951346e-01 -4.3496802e-02 
1.0413214e+00 9.1943389e-01 -3.6332868e-02 
1.0395133e+00 9.1735095e-01 -5.7267908e-02 
1.0377299e+00 9.1582960e-01 -3.8264919e-02 
1.0388467e+00 9.1696686e-01 -3.7849694e-02 
1.0475434e+00 9.2520165e-01 -6.5128490e-02 
1.0375268e+00 9.1556406e-01 -4.3294795e-02 
1.0365138e+00 9.1446602e-01 -5.0153926e-02 
1.0384692e+00 9.1628581e-01 -5.7901770e-02 
1.0403134e+00 9.1808796e-01 -6.0107384e-02 
1.0404061e+00 9.1823673e-01 -5.6481354e-02 
1.0320284e+00 9.1010213e-01 -4.2868987e-02 
1.0327479e+00 9.1092592e-01 -3.5478920e-02 
1.0326903e+00 9.1053367e-01 -5.8631893e-02 
1.0316708e+00 9.0977603e-01 -4.1940503e-02 
1.0331901e+00 9.1117716e-01 -4.8765540e-02 
1.0329747e+00 9.1082656e-01 -5.7284184e-02 
1.0270833e+00 9.0509737e-01 -4.9507055e-02 
1.0276827e+00 9.0578192e-01 -4.3181632e-02 
1.0273252e+00 9.0550321e-01 -3.7129100e-02 
1.0267650e+00 9.0467960e-01 -5.6550894e-02 
1.0259207e+00 9.0412307e-01 -3.6896005e-02 
1.0337209e+00 9.1145760e-01 -6.4311303e-02 
1.0257450e+00 9.0363896e-01 -5.7206359e-02 
1.0226281e+00 9.0076888e-01 -4.2236920e-02 
1.0224519e+00 9.0068972e-01 -3.5079591e-02 
1.0200653e+00 8.9814007e-01 -4.7842197e-02 
1.0200642e+00 8.9798737e-01 -5.7913285e-02 
1.0199125e+00 8.9817959e-01 -3.4596000e-02 
1.0265279e+00 9.0438604e-01 -5.9312157e-02 
1.0266160e+00 9.0453041e-01 -5.5694081e-02 
1.0186636e+00 8.9682537e-01 -4.2553611e-02 
1.0182397e+00 8.9635527e-01 -4.6310809e-02 
1.0177138e+00 8.9579928e-01 -4.8860572e-02 
1.0179592e+00 8.9620966e-01 -3.6517508e-02 
1.0188581e+00 8.9705974e-01 -4.0874869e-02 
1.0194254e+00 8.9751118e-01 -4.8012264e-02 
1.0192199e+00 8.9716804e-01 -5.6469724e-02 
1.0142324e+00 8.9223701e-01 -5.5832911e-02 
1.0132954e+00 8.9151442e-01 -4.1617632e-02 
1.0131224e+00 8.9143831e-01 -3.4472208e-02 
1.0132046e+00 8.9151293e-01 -3.5971768e-02 
1.0132241e+00 8.9120668e-01 -5.6536786e-02 
1.0199529e+00 8.9777911e-01 -6.3491091e-02 
1.0084164e+00 8.8658005e-01 -4.8220254e-02 
1.0086684e+00 8.8699561e-01 -3.5914361e-02 
1.0077754e+00 8.8598323e-01 -4.4943411e-02 
1.0076416e+00 8.8566327e-01 -5.7202183e-02 
1.0072746e+00 8.8564855e-01 -3.3719838e-02 
1.0127889e+00 8.9074498e-01 -5.8514070e-02 
1.0128733e+00 8.9088619e-01 -5.4905463e-02 
1.0040325e+00 8.8233072e-01 -4.1014086e-02 