# vtk DataFile Version 4.0
vtk output
ASCII
DATASET UNSTRUCTURED_GRID
POINTS 6166 float
-4.3633327e-01 9.6409470e-01 4.4200001e+01 
-4.3633261e-01 9.6409082e-01 4.4079685e+01 
-3.2145375e-01 9.1276109e-01 4.4200001e+01 
-3.8566181e-01 8.4097892e-01 4.4200001e+01 
-3.3069235e-01 9.1895354e-01 4.4019413e+01 
-3.8473952e-01 8.3919770e-01 4.4024357e+01 
-4.3633196e-01 9.6408689e-01 4.3958702e+01 
-2.1293370e-01 8.4677851e-01 4.4200001e+01 
-2.9042658e-01 7.3813015e-01 4.4200001e+01 
-2.1019450e-01 8.4669626e-01 4.4077393e+01 
-2.8909999e-01 7.3605996e-01 4.4073399e+01 
-3.2963324e-01 9.1929907e-01 4.3898094e+01 
-3.8679782e-01 8.4179753e-01 4.3889645e+01 
-2.0740938e-01 8.4661204e-01 4.3952713e+01 
-4.3633130e-01 9.6408290e-01 4.3837040e+01 
-1.1677200e-01 7.7521002e-01 4.4200001e+01 
-2.8775173e-01 7.3395580e-01 4.3944717e+01 
-1.9365783e-01 6.6203654e-01 4.4200001e+01 
-1.1309985e-01 7.7540898e-01 4.4012005e+01 
-1.9181472e-01 6.5888047e-01 4.4006447e+01 
-3.2856464e-01 9.1964108e-01 4.3776085e+01 
-3.8823184e-01 8.4352189e-01 4.3765770e+01 
-2.0457739e-01 8.4652513e-01 4.3825886e+01 
-2.8638119e-01 7.3181647e-01 4.3813885e+01 
-4.3633065e-01 9.6407896e-01 4.3714680e+01 
-1.0911675e-01 7.7426714e-01 4.3886200e+01 
-2.1001574e-02 6.8269837e-01 4.4200001e+01 
-1.8902887e-01 6.5566909e-01 4.3876659e+01 
-7.8887597e-02 5.9015810e-01 4.4200001e+01 
-3.2748649e-01 9.1997939e-01 4.3653378e+01 
-3.9889076e-01 8.5876143e-01 4.3651733e+01 
-2.0169757e-01 8.4643483e-01 4.3696846e+01 
-7.2496021e-03 6.7325598e-01 4.3947758e+01 
-1.0504345e-01 7.7307969e-01 4.3758209e+01 
-2.8498772e-01 7.2964084e-01 4.3680840e+01 
-6.3224643e-02 5.7783771e-01 4.3940754e+01 
3.5808440e-02 6.2679136e-01 4.4056572e+01 
-1.8616955e-01 6.5238589e-01 4.3744686e+01 
-4.3632996e-01 9.6407503e-01 4.3591618e+01 
-9.8678423e-03 5.4892725e-01 4.4055367e+01 
-1.8652271e-02 6.8798620e-01 4.3834026e+01 
-7.9845116e-02 5.8636194e-01 4.3823372e+01 
8.7777540e-02 5.7885915e-01 4.4200001e+01 
5.3622175e-02 5.1732427e-01 4.4200001e+01 
-3.2639861e-01 9.2031354e-01 4.3529953e+01 
-3.9894739e-01 8.5844576e-01 4.3528313e+01 
-1.9876897e-01 8.4634024e-01 4.3565521e+01 
-1.0087753e-01 7.7184403e-01 4.3627972e+01 
-2.8357074e-01 7.2742778e-01 4.3545506e+01 
-1.8323407e-01 6.4902818e-01 4.3610458e+01 
-4.3632931e-01 9.6407109e-01 4.3467831e+01 
3.1033519e-03 6.6751039e-01 4.3691772e+01 
-5.3600248e-02 5.6906003e-01 4.3676846e+01 
1.2436585e-01 5.5082864e-01 4.3886215e+01 
1.7079005e-01 5.1095647e-01 4.4054855e+01 
1.4951277e-01 4.6697062e-01 4.4053665e+01 
1.0028158e-01 4.8915190e-01 4.3877911e+01 
-4.0513036e-01 8.6722642e-01 4.3405304e+01 
-3.2530096e-01 9.2064321e-01 4.3405800e+01 
-9.6616447e-02 7.7055699e-01 4.3495411e+01 
-8.4563000e-03 6.8258613e-01 4.3574005e+01 
-1.9579062e-01 8.4624058e-01 4.3431831e+01 
2.1753120e-01 4.7335833e-01 4.4200001e+01 
2.0360756e-01 4.4289169e-01 4.4200001e+01 
-1.8021962e-01 6.4559317e-01 4.3473904e+01 
-7.0636064e-02 5.7773441e-01 4.3555408e+01 
-2.8212959e-01 7.2517604e-01 4.3407806e+01 
-4.3632865e-01 9.6406716e-01 4.3343307e+01 
1.3810426e-01 5.4143524e-01 4.3628246e+01 
-3.2419339e-01 9.2096806e-01 4.3280907e+01 
-3.9903235e-01 8.5775709e-01 4.3279266e+01 
-9.2257597e-02 7.6921552e-01 4.3360443e+01 
1.1508528e-01 4.7804743e-01 4.3612068e+01 
-1.9276154e-01 8.4613472e-01 4.3295704e+01 
1.4013666e-02 6.6131532e-01 4.3426643e+01 
-1.7712323e-01 6.4207786e-01 4.3334946e+01 
-2.8066361e-01 7.2288430e-01 4.3267666e+01 
-4.3382257e-02 5.5983055e-01 4.3403778e+01 
-4.3632799e-01 9.6406323e-01 4.3218033e+01 
3.7877345e-01 3.8273901e-01 4.4200001e+01 
3.9076596e-01 3.7443376e-01 4.3993755e+01 
-3.2307580e-01 9.2128778e-01 4.3155251e+01 
-3.9906058e-01 8.5738426e-01 4.3153610e+01 
-8.7798268e-02 7.6781619e-01 4.3222996e+01 
1.9689407e-02 6.5803534e-01 4.3290459e+01 
-6.0862999e-02 5.6866169e-01 4.3278019e+01 
-1.8968078e-01 8.4602165e-01 4.3157055e+01 
-1.7394182e-01 6.3847917e-01 4.3193501e+01 
-4.3632734e-01 9.6405929e-01 4.3091995e+01 
4.0275589e-01 3.6612594e-01 4.3787510e+01 
1.2304078e-01 5.5709994e-01 4.3330139e+01 
-2.7917209e-01 7.2055119e-01 4.3125000e+01 
2.5336364e-01 4.4907436e-01 4.3468094e+01 
2.3670304e-01 4.1684708e-01 4.3469433e+01 
1.3086085e-01 4.6634668e-01 4.3336948e+01 
-3.8351217e-01 8.3473074e-01 4.3036392e+01 
-3.2194808e-01 9.2160189e-01 4.3028820e+01 
2.5518833e-02 6.5462554e-01 4.3151749e+01 
-8.3235659e-02 7.6635528e-01 4.3082981e+01 
4.1474071e-01 3.5781288e-01 4.3581264e+01 
-1.8654740e-01 8.4590012e-01 4.3015797e+01 
-3.2522827e-02 5.5011308e-01 4.3120937e+01 
-1.7067213e-01 6.3479382e-01 4.3049488e+01 
-4.3632668e-01 9.6405542e-01 4.2965172e+01 
-2.7765438e-01 7.1817529e-01 4.2979721e+01 
2.6620242e-01 4.4011977e-01 4.3261948e+01 
1.3584816e-02 6.7044950e-01 4.3025066e+01 
-3.2081014e-01 9.2191011e-01 4.2901604e+01 
-3.8160574e-01 8.3169121e-01 4.2902863e+01 
-7.8566879e-02 7.6482886e-01 4.2940315e+01 
-5.0480481e-02 5.5910730e-01 4.2990566e+01 
4.2671782e-01 3.4949207e-01 4.3375019e+01 
1.6821145e-01 5.2049083e-01 4.3083881e+01 
-1.8336046e-01 8.4576881e-01 4.2871841e+01 
-4.3632606e-01 9.6405160e-01 4.2837555e+01 
-1.6731077e-01 6.3101834e-01 4.2902817e+01 
1.4768846e-01 4.5400122e-01 4.3051926e+01 
-2.7610970e-01 7.1575516e-01 4.2831745e+01 
-3.1966189e-01 9.2221189e-01 4.2773579e+01 
-3.8560396e-01 8.3684862e-01 4.2767078e+01 
3.7660085e-02 6.4738947e-01 4.2866421e+01 
-7.3788933e-02 7.6323271e-01 4.2794899e+01 
4.3868470e-01 3.4116083e-01 4.3168777e+01 
-4.3632543e-01 9.6404779e-01 4.2709122e+01 
-2.0968946e-02 5.3986710e-01 4.2827656e+01 
-1.8011902e-01 8.4562629e-01 4.2725094e+01 
-1.6385415e-01 6.2714905e-01 4.2753403e+01 
-2.7453732e-01 7.1328926e-01 4.2680973e+01 
-3.1850323e-01 9.2250693e-01 4.2644733e+01 
-3.9907700e-01 8.5570478e-01 4.2643101e+01 
2.5504474e-02 6.6361672e-01 4.2734810e+01 
1.8471870e-01 5.0880390e-01 4.2796177e+01 
-6.8898737e-02 7.6156229e-01 4.2646645e+01 
-3.9438177e-02 5.4903054e-01 4.2692345e+01 
-4.3632481e-01 9.6404403e-01 4.2579861e+01 
4.5063871e-01 3.3281663e-01 4.2962532e+01 
1.6565691e-01 4.4095638e-01 4.2756321e+01 
-1.7682223e-01 8.4547096e-01 4.2575459e+01 
-1.6029853e-01 6.2318206e-01 4.2601143e+01 
-4.0415615e-01 8.6278629e-01 4.2516582e+01 
-3.1733403e-01 9.2279470e-01 4.2515053e+01 
-2.7293649e-01 7.1077597e-01 4.2527313e+01 
5.0482783e-02 6.3954860e-01 4.2569923e+01 
-4.3632418e-01 9.6404034e-01 4.2449757e+01 
-6.3893095e-02 7.5981271e-01 4.2495445e+01 
-8.6617703e-03 5.2904755e-01 4.2523201e+01 
-1.7346917e-01 8.4530097e-01 4.2422829e+01 
-1.5663996e-01 6.1911333e-01 4.2445942e+01 
3.0435190e-01 4.1341871e-01 4.2643494e+01 
4.6257737e-01 3.2445681e-01 4.2756287e+01 
-3.1615424e-01 9.2307472e-01 4.2384518e+01 
-3.9902648e-01 8.5475212e-01 4.2382885e+01 
-2.7130640e-01 7.0821363e-01 4.2370659e+01 
3.8079392e-02 6.5619886e-01 4.2433029e+01 
2.0230262e-01 4.9620378e-01 4.2497147e+01 
-4.3632355e-01 9.6403670e-01 4.2318787e+01 
-5.8768708e-02 7.5797862e-01 4.2341198e+01 
-2.7680276e-02 5.3838593e-01 4.2382599e+01 
1.8486446e-01 4.2715022e-01 4.2449394e+01 
-3.8436696e-01 8.3356136e-01 4.2264896e+01 
8.9545198e-02 5.3233254e-01 4.2382050e+01 
-3.3225983e-01 9.3122375e-01 4.2255634e+01 
-1.7005907e-01 8.4511453e-01 4.2267101e+01 
-1.5287429e-01 6.1493850e-01 4.2287693e+01 
4.7449806e-01 3.1607881e-01 4.2550037e+01 
-2.6964626e-01 7.0560038e-01 4.2210907e+01 
-4.3632296e-01 9.6403313e-01 4.2186939e+01 
6.4036883e-02 6.3103610e-01 4.2261456e+01 
-5.3522192e-02 7.5605446e-01 4.2183796e+01 
-3.7873057e-01 8.2541841e-01 4.2124020e+01 
-3.1376252e-01 9.2360973e-01 4.2120819e+01 
4.4639236e-03 5.1760370e-01 4.2206776e+01 
-1.6659111e-01 8.4490943e-01 4.2108162e+01 
-1.4899719e-01 6.1065292e-01 4.2126286e+01 
-4.3632239e-01 9.6402961e-01 4.2054195e+01 
4.8639825e-01 3.0768004e-01 4.2343792e+01 
-2.6795524e-01 7.0293444e-01 4.2047943e+01 
2.4746621e-01 4.6040925e-01 4.2191032e+01 
7.1105182e-02 6.2650448e-01 4.2102463e+01 
-3.1255043e-01 9.2386365e-01 4.1987617e+01 
-4.8150036e-02 7.5403398e-01 4.2023121e+01 
-1.5144684e-02 5.2712250e-01 4.2060505e+01 
-3.7995064e-01 8.2661813e-01 4.1980038e+01 
2.0541981e-01 4.1251117e-01 4.2130333e+01 
-1.6306458e-01 8.4468329e-01 4.1945896e+01 
-4.3632182e-01 9.6402621e-01 4.1920536e+01 
-1.4500406e-01 6.0625184e-01 4.1961609e+01 
1.3375351e-01 5.6370503e-01 4.1969833e+01 
-2.6623246e-01 7.0021385e-01 4.1881653e+01 
-3.1132740e-01 9.2410773e-01 4.1853493e+01 
-3.9880505e-01 8.5261923e-01 4.1851868e+01 
4.9827534e-01 2.9925787e-01 4.2137547e+01 
3.4194937e-01 3.8685825e-01 4.2025021e+01 
-4.2648647e-02 7.5191063e-01 4.1859051e+01 
-2.5401810e-01 7.9503769e-01 4.1808533e+01 
1.8480448e-02 5.0547802e-01 4.1877510e+01 
-4.3632126e-01 9.6402287e-01 4.1785946e+01 
-1.5947884e-01 8.4443361e-01 4.1780174e+01 
-1.4089009e-01 6.0172999e-01 4.1793541e+01 
-3.1009343e-01 9.2434150e-01 4.1718426e+01 
-4.0306881e-01 8.5845691e-01 4.1716179e+01 
8.5861288e-02 6.1683756e-01 4.1774368e+01 
-2.6447710e-01 6.9743657e-01 4.1711910e+01 
3.0427080e-01 4.1638452e-01 4.1839512e+01 
2.6751360e-01 3.7833902e-01 4.1830902e+01 
5.1012677e-01 2.9080975e-01 4.1931297e+01 
-3.7014309e-02 7.4967718e-01 4.1691463e+01 
-4.3632072e-01 9.6401966e-01 4.1650398e+01 
2.5847588e-02 4.9913955e-01 4.1707767e+01 
-1.5583332e-01 8.4415752e-01 4.1610870e+01 
-3.8322043e-01 8.2981020e-01 4.1595791e+01 
-3.0884841e-01 9.2456430e-01 4.1582397e+01 
-1.3665022e-01 5.9708190e-01 4.1621960e+01 
9.3565010e-02 6.1167872e-01 4.1605015e+01 
-2.6268822e-01 6.9460052e-01 4.1538593e+01 
-4.3632022e-01 9.6401656e-01 4.1513885e+01 
-3.1243213e-02 7.4732590e-01 4.1520226e+01 
2.7603787e-01 3.7115356e-01 4.1624012e+01 
2.8505871e-01 4.3281260e-01 4.1611507e+01 
5.2195001e-01 2.8233302e-01 4.1725052e+01 
3.3468332e-02 4.9260557e-01 4.1534447e+01 
-3.9853087e-01 8.5081697e-01 4.1443768e+01 
-3.2560509e-01 9.3245691e-01 4.1443577e+01 
-1.5212752e-01 8.4385180e-01 4.1437847e+01 
-1.3227913e-01 5.9230179e-01 4.1446728e+01 
-4.3631971e-01 9.6401358e-01 4.1376381e+01 
[...]
POINT_DATA 6166
FIELD FieldData 5
DISPLACEMENT 3 6166  float
-6.6412985e-01 -6.0870516e-01 -1.5747359e-02 
-6.6003919e-01 -6.0458219e-01 -1.5607188e-02 
-6.6408676e-01 -6.0856330e-01 -1.3591746e-02 
-6.6389602e-01 -6.0858357e-01 -1.8234231e-02 
-6.5795481e-01 -6.0238761e-01 -1.3483924e-02 
-6.5792096e-01 -6.0256267e-01 -1.8058963e-02 
-6.5592575e-01 -6.0043627e-01 -1.5466265e-02 
-6.6400862e-01 -6.0841894e-01 -1.2153919e-02 
-6.6373128e-01 -6.0843045e-01 -1.8510129e-02 
-6.5984154e-01 -6.0421479e-01 -1.1920501e-02 
-6.5942329e-01 -6.0408956e-01 -1.8388167e-02 
-6.5383130e-01 -5.9822935e-01 -1.3294625e-02 
-6.5334523e-01 -5.9794980e-01 -1.7883021e-02 
-6.5560383e-01 -5.9993947e-01 -1.1683197e-02 
-6.5178919e-01 -5.9626704e-01 -1.5324575e-02 
-6.6391134e-01 -6.0828334e-01 -1.1328053e-02 
-6.5504444e-01 -5.9967732e-01 -1.8264173e-02 
-6.6362464e-01 -6.0829163e-01 -1.7818404e-02 
-6.5752232e-01 -6.0183775e-01 -1.0977013e-02 
-6.5703839e-01 -6.0165536e-01 -1.7637920e-02 
-6.4968443e-01 -5.9404761e-01 -1.3104389e-02 
-6.4913642e-01 -5.9370726e-01 -1.7728396e-02 
-6.5129328e-01 -5.9559065e-01 -1.1441940e-02 
-6.5059268e-01 -5.9519154e-01 -1.8138047e-02 
-6.4762908e-01 -5.9207416e-01 -1.5182094e-02 
-6.5324479e-01 -5.9752208e-01 -1.0733814e-02 
-6.6376901e-01 -6.0813576e-01 -1.1232096e-02 
-6.5262043e-01 -5.9720320e-01 -1.7501527e-02 
-6.6353744e-01 -6.0813767e-01 -1.6369494e-02 
-6.4551383e-01 -5.8984196e-01 -1.2913231e-02 
-6.4528579e-01 -5.8981889e-01 -1.7436961e-02 
-6.4690757e-01 -5.9116614e-01 -1.1196681e-02 
-6.5518081e-01 -5.9947300e-01 -1.0792797e-02 
-6.4889324e-01 -5.9313178e-01 -1.0486636e-02 
-6.4606559e-01 -5.9062994e-01 -1.8009689e-02 
-6.5470612e-01 -5.9923148e-01 -1.5955312e-02 
-6.5880603e-01 -6.0313261e-01 -1.1043195e-02 
-6.4812827e-01 -5.9267622e-01 -1.7362431e-02 
-6.4344507e-01 -5.8785713e-01 -1.5038781e-02 
-6.5857178e-01 -6.0308993e-01 -1.5261246e-02 
-6.5133905e-01 -5.9559560e-01 -1.0544543e-02 
-6.5072381e-01 -5.9523028e-01 -1.6092669e-02 
-6.6360992e-01 -6.0796875e-01 -1.1080744e-02 
-6.6345841e-01 -6.0796583e-01 -1.4349220e-02 
-6.4131916e-01 -5.8561218e-01 -1.2721067e-02 
-6.4108908e-01 -5.8558977e-01 -1.7305620e-02 
-6.4244443e-01 -5.8666354e-01 -1.0947373e-02 
-6.4446527e-01 -5.8866447e-01 -1.0235442e-02 
-6.4146090e-01 -5.8599013e-01 -1.7879099e-02 
-6.4355952e-01 -5.8807218e-01 -1.7220654e-02 
-6.3923669e-01 -5.8361590e-01 -1.4894793e-02 
-6.4647156e-01 -5.9068799e-01 -1.0338577e-02 
-6.4572048e-01 -5.9017378e-01 -1.5619960e-02 
-6.5290278e-01 -5.9716392e-01 -1.0428086e-02 
-6.5857798e-01 -6.0287410e-01 -1.0408041e-02 
-6.5843105e-01 -6.0282820e-01 -1.2636155e-02 
-6.5247452e-01 -5.9686661e-01 -1.3348670e-02 
-6.3692284e-01 -5.8138669e-01 -1.7072262e-02 
-6.3709986e-01 -5.8135778e-01 -1.2528166e-02 
-6.3995850e-01 -5.8411777e-01 -9.9802166e-03 
-6.4249349e-01 -5.8667308e-01 -1.0079306e-02 
-6.3790131e-01 -5.8208048e-01 -1.0693960e-02 
-6.6345942e-01 -6.0778028e-01 -1.0272062e-02 
-6.6338611e-01 -6.0777599e-01 -1.1788607e-02 
-6.3891190e-01 -5.8338881e-01 -1.7075878e-02 
-6.4160097e-01 -5.8603483e-01 -1.5761446e-02 
-6.3677627e-01 -5.8126998e-01 -1.7745951e-02 
-6.3500386e-01 -5.7934988e-01 -1.4749848e-02 
-6.4412034e-01 -5.8830559e-01 -9.9810539e-03 
-6.3285607e-01 -5.7707882e-01 -1.2334084e-02 
-6.3262218e-01 -5.7705772e-01 -1.7041285e-02 
-6.3537049e-01 -5.7948935e-01 -9.7209467e-03 
-6.4342135e-01 -5.8773643e-01 -1.2914357e-02 
-6.3327587e-01 -5.7741463e-01 -1.0436494e-02 
-6.3745171e-01 -5.8159024e-01 -9.8704770e-03 
-6.3418311e-01 -5.7862353e-01 -1.6928075e-02 
-6.3200909e-01 -5.7646674e-01 -1.7610589e-02 
-6.3642412e-01 -5.8080310e-01 -1.5268802e-02 
-6.3074595e-01 -5.7505894e-01 -1.4604236e-02 
-6.6335899e-01 -6.0756993e-01 -7.8820251e-03 
-6.5633613e-01 -6.0048574e-01 -7.5173839e-03 
-6.2858695e-01 -5.7277423e-01 -1.2139179e-02 
-6.2835127e-01 -5.7275403e-01 -1.6908253e-02 
-6.3069868e-01 -5.7477677e-01 -9.4576078e-03 
-6.3281929e-01 -5.7691807e-01 -9.6312966e-03 
-6.3215899e-01 -5.7651806e-01 -1.5414647e-02 
-6.2856525e-01 -5.7266325e-01 -1.0174963e-02 
-6.2937057e-01 -5.7377422e-01 -1.6777178e-02 
-6.2646264e-01 -5.7074249e-01 -1.4457772e-02 
-6.4931333e-01 -5.9340191e-01 -7.1530323e-03 
-6.3401175e-01 -5.7811695e-01 -9.6113952e-03 
-6.2715697e-01 -5.7157826e-01 -1.7472534e-02 
-6.3854539e-01 -5.8265233e-01 -9.0299677e-03 
-6.3851237e-01 -5.8269542e-01 -1.0700957e-02 
-6.3405365e-01 -5.7828915e-01 -1.2456673e-02 
-6.2432903e-01 -5.6871200e-01 -1.7016461e-02 
-6.2429219e-01 -5.6844449e-01 -1.1943714e-02 
-6.2810171e-01 -5.7216060e-01 -9.3884971e-03 
-6.2594050e-01 -5.6997734e-01 -9.1900844e-03 
-6.4229113e-01 -5.8631903e-01 -6.7892876e-03 
-6.2376720e-01 -5.6782395e-01 -9.9088065e-03 
-6.2679785e-01 -5.7110059e-01 -1.4900489e-02 
-6.2447137e-01 -5.6883806e-01 -1.6623365e-02 
-6.2215370e-01 -5.6640053e-01 -1.4310617e-02 
-6.2221718e-01 -5.6660169e-01 -1.7331857e-02 
-6.3152748e-01 -5.7557404e-01 -8.6600119e-03 
-6.2382460e-01 -5.6784451e-01 -9.1067497e-03 
-6.1997151e-01 -5.6408912e-01 -1.1747116e-02 
-6.1978734e-01 -5.6413740e-01 -1.6899658e-02 
-6.2109309e-01 -5.6508833e-01 -8.9184968e-03 
-6.2237793e-01 -5.6666046e-01 -1.5051423e-02 
-6.3527077e-01 -5.7923830e-01 -6.4269672e-03 
-6.2559170e-01 -5.6961918e-01 -9.0395957e-03 
-6.1887860e-01 -5.6289369e-01 -9.6386289e-03 
-6.1781818e-01 -5.6203234e-01 -1.4162767e-02 
-6.1948335e-01 -5.6381243e-01 -1.6465791e-02 
-6.2435234e-01 -5.6850630e-01 -1.1973094e-02 
-6.1718684e-01 -5.6153464e-01 -1.7188353e-02 
-6.1562431e-01 -5.5970728e-01 -1.1549904e-02 
-6.1518455e-01 -5.5949765e-01 -1.6700570e-02 
-6.1840045e-01 -5.6237829e-01 -8.8922735e-03 
-6.1615372e-01 -5.6010711e-01 -8.6427694e-03 
-6.2825042e-01 -5.7215804e-01 -6.0650832e-03 
-6.1345637e-01 -5.5763823e-01 -1.4013863e-02 
-6.1682063e-01 -5.6104565e-01 -1.4514289e-02 
-6.1389667e-01 -5.5787015e-01 -9.3643488e-03 
-6.1440295e-01 -5.5869478e-01 -1.6305225e-02 
-6.1206365e-01 -5.5637437e-01 -1.7041670e-02 
-6.1125082e-01 -5.5529934e-01 -1.1352123e-02 
-6.1100787e-01 -5.5528146e-01 -1.6369779e-02 
-6.1395913e-01 -5.5789721e-01 -8.5994443e-03 
-6.1580431e-01 -5.5975056e-01 -8.5435789e-03 
-6.1111951e-01 -5.5503100e-01 -8.3633326e-03 
-6.1223590e-01 -5.5644089e-01 -1.4670753e-02 
-6.0906857e-01 -5.5321789e-01 -1.3863818e-02 
-6.2123334e-01 -5.6508237e-01 -5.7046632e-03 
-6.1429572e-01 -5.5836600e-01 -1.1462542e-02 
-6.0881883e-01 -5.5275077e-01 -9.0859858e-03 
-6.0922867e-01 -5.5348253e-01 -1.6140310e-02 
-6.0672581e-01 -5.5096513e-01 -1.6152665e-02 
-6.0685098e-01 -5.5086589e-01 -1.1152949e-02 
-6.0684472e-01 -5.5111802e-01 -1.6892612e-02 
-6.0832602e-01 -5.5222195e-01 -8.3825653e-03 
-6.0465354e-01 -5.4877108e-01 -1.3713469e-02 
-6.0598832e-01 -5.4985803e-01 -8.0799386e-03 
-6.0647172e-01 -5.5061835e-01 -1.4108128e-02 
-6.0364181e-01 -5.4753208e-01 -8.8033471e-03 
-6.0395759e-01 -5.4817355e-01 -1.5972935e-02 
-6.1048865e-01 -5.5435950e-01 -7.5579626e-03 
-6.1421978e-01 -5.5801177e-01 -5.3458875e-03 
-6.0242373e-01 -5.4640424e-01 -1.0953008e-02 
-6.0217714e-01 -5.4638755e-01 -1.6095920e-02 
-6.0152680e-01 -5.4576313e-01 -1.6740698e-02 
-6.0371065e-01 -5.4756707e-01 -8.0779204e-03 
-6.0563958e-01 -5.4950452e-01 -8.0305897e-03 
-6.0021144e-01 -5.4429710e-01 -1.3561777e-02 
-6.0075551e-01 -5.4458338e-01 -7.7918405e-03 
-6.0171211e-01 -5.4583925e-01 -1.4270887e-02 
-6.0386306e-01 -5.4784977e-01 -1.0923130e-02 
-5.9814048e-01 -5.4233205e-01 -1.6181916e-02 
-6.0174805e-01 -5.4570353e-01 -1.0495575e-02 
-5.9806162e-01 -5.4202360e-01 -1.1074541e-02 
-5.9836262e-01 -5.4221100e-01 -8.5164038e-03 
-5.9858471e-01 -5.4276341e-01 -1.5800599e-02 
-6.0720927e-01 -5.5094415e-01 -4.9893861e-03 
-5.9610683e-01 -5.4030663e-01 -1.6584847e-02 
-5.9574240e-01 -5.3979713e-01 -1.3409493e-02 
-5.9785378e-01 -5.4166836e-01 -7.8581506e-03 
-5.9541905e-01 -5.3920466e-01 -7.5000795e-03 
-5.9335238e-01 -5.3751528e-01 -1.6103424e-02 
-5.9348792e-01 -5.3740180e-01 -1.0552444e-02 
-5.9572572e-01 -5.3979385e-01 -1.3681342e-02 
-5.9297830e-01 -5.3678495e-01 -8.2245758e-03 
-5.9310782e-01 -5.3724957e-01 -1.5625346e-02 
-5.9124571e-01 -5.3526950e-01 -1.3256852e-02 
-6.0020280e-01 -5.4388332e-01 -4.6349419e-03 
-5.9058166e-01 -5.3474504e-01 -1.6426127e-02 
-5.9521061e-01 -5.3898877e-01 -7.3645306e-03 
-5.9246165e-01 -5.3623474e-01 -7.5904774e-03 
-5.8897787e-01 -5.3286028e-01 -1.0350694e-02 
-5.8997506e-01 -5.3371900e-01 -7.2049415e-03 
-5.9077978e-01 -5.3482962e-01 -1.3850493e-02 
-5.8847779e-01 -5.3260809e-01 -1.5935773e-02 
-5.9302831e-01 -5.3693026e-01 -1.0352951e-02 
-5.8748513e-01 -5.3125024e-01 -7.9293428e-03 
-5.8671963e-01 -5.3071404e-01 -1.3103678e-02 
-5.8752495e-01 -5.3163016e-01 -1.5444711e-02 
-5.8787340e-01 -5.3161746e-01 -7.4525671e-03 
-5.8494884e-01 -5.2907693e-01 -1.6263429e-02 
-5.8443958e-01 -5.2829075e-01 -1.0149258e-02 
-5.8418500e-01 -5.2827579e-01 -1.5540040e-02 
-5.9320408e-01 -5.3683245e-01 -4.2832820e-03 
-5.8948725e-01 -5.3319532e-01 -6.4757573e-03 
-5.8442140e-01 -5.2812415e-01 -6.9064097e-03 
-5.8268172e-01 -5.2663153e-01 -1.2542572e-02 
-5.8455932e-01 -5.2855045e-01 -1.3231849e-02 
-5.8216667e-01 -5.2613288e-01 -1.2949780e-02 
-5.8188099e-01 -5.2560633e-01 -7.6323682e-03 
-5.8183360e-01 -5.2590269e-01 -1.5258589e-02 
-5.7987362e-01 -5.2369481e-01 -9.9471146e-03 
-5.7960796e-01 -5.2366865e-01 -1.5326765e-02 
-5.8134633e-01 -5.2504015e-01 -7.0487512e-03 
-5.7920545e-01 -5.2329963e-01 -1.6096439e-02 
-5.8324927e-01 -5.2692896e-01 -6.5350686e-03 
-5.8285630e-01 -5.2664894e-01 -9.0626515e-03 
-5.8620834e-01 -5.2978414e-01 -3.9349613e-03 
-5.7875574e-01 -5.2241826e-01 -6.6050775e-03 
-5.7758611e-01 -5.2152497e-01 -1.2793525e-02 
-5.7881260e-01 -5.2276677e-01 -1.2996665e-02 
-5.7616329e-01 -5.1984912e-01 -7.3310407e-03 
-5.7549334e-01 -5.1954305e-01 -1.5484663e-02 
-5.7528162e-01 -5.1907396e-01 -9.7459629e-03 
-5.7602894e-01 -5.2006465e-01 -1.5070525e-02 
-5.7562023e-01 -5.1927549e-01 -6.7715966e-03 
-5.7334995e-01 -5.1741093e-01 -1.5926745e-02 
-5.7298058e-01 -5.1689154e-01 -1.2637229e-02 
-5.7297277e-01 -5.1659727e-01 -6.3004284e-03 
-5.7585585e-01 -5.1960409e-01 -8.7793432e-03 
-5.7556897e-01 -5.1920617e-01 -6.3692420e-03 
-5.7922310e-01 -5.2275044e-01 -3.5906583e-03 
-5.7295161e-01 -5.1687044e-01 -1.2756710e-02 
-5.7040274e-01 -5.1441288e-01 -1.5113605e-02 
-5.7060730e-01 -5.1438510e-01 -9.8883836e-03 
-5.7032692e-01 -5.1397604e-01 -7.0248018e-03 
-5.7011032e-01 -5.1411343e-01 -1.4876207e-02 
-5.6834465e-01 -5.1223004e-01 -1.2481519e-02 
-5.7058007e-01 -5.1420772e-01 -6.6079586e-03 
-5.6737703e-01 -5.1140678e-01 -1.5752263e-02 
-5.6707114e-01 -5.1065886e-01 -5.9923958e-03 
-5.6601346e-01 -5.0975060e-01 -9.3396045e-03 
-5.6575018e-01 -5.0973767e-01 -1.4970531e-02 
-5.6697434e-01 -5.1085931e-01 -1.2509888e-02 
-5.6919789e-01 -5.1289725e-01 -8.2860924e-03 
-5.7224900e-01 -5.1573104e-01 -3.2493309e-03 
-5.6437081e-01 -5.0798362e-01 -6.7155808e-03 
-5.6823438e-01 -5.1181853e-01 -5.8299168e-03 
-5.6367970e-01 -5.0754255e-01 -1.2327004e-02 
-5.6407309e-01 -5.0804549e-01 -1.4677406e-02 
-5.6440413e-01 -5.0799710e-01 -6.3300580e-03 
-5.6133503e-01 -5.0504816e-01 -9.1370726e-03 
-5.6107002e-01 -5.0503749e-01 -1.4827215e-02 
-5.6128418e-01 -5.0528520e-01 -1.5574849e-02 
-5.6104618e-01 -5.0459903e-01 -5.6808307e-03 
-5.6087685e-01 -5.0473034e-01 -1.2256721e-02 
-5.5898643e-01 -5.0282890e-01 -1.2169889e-02 
-5.6252933e-01 -5.0620341e-01 -8.2269218e-03 
-5.6528705e-01 -5.0872707e-01 -2.9129626e-03 
-5.5828887e-01 -5.0186825e-01 -6.4027240e-03 
-5.5791306e-01 -5.0185764e-01 -1.4474073e-02 
-5.6147105e-01 -5.0501513e-01 -5.4485588e-03 
-5.5662853e-01 -5.0031835e-01 -8.9347055e-03 
-5.5636269e-01 -5.0030953e-01 -1.4683021e-02 
-5.5799216e-01 -5.0155169e-01 -6.0296664e-03 
-5.5506647e-01 -4.9904242e-01 -1.5393531e-02 
-5.5426550e-01 -4.9808684e-01 -1.2010873e-02 
-5.5489308e-01 -4.9841437e-01 -5.3661847e-03 
-5.5465448e-01 -4.9847901e-01 -1.1996964e-02 
-5.5189484e-01 -4.9556336e-01 -8.7317824e-03 
-5.5162621e-01 -4.9555296e-01 -1.4539577e-02 
-5.5207705e-01 -4.9562675e-01 -6.0854144e-03 
-5.5833811e-01 -5.0173998e-01 -2.5817698e-03 
-5.5162638e-01 -4.9554640e-01 -1.4265841e-02 
-5.5465889e-01 -4.9830520e-01 -8.1167566e-03 
-5.5476242e-01 -4.9826893e-01 -5.0612013e-03 
-5.4951453e-01 -4.9331772e-01 -1.1854147e-02 
-5.5147880e-01 -4.9500778e-01 -5.7280422e-03 
-5.4872054e-01 -4.9267468e-01 -1.5206875e-02 
-5.4860920e-01 -4.9210179e-01 -5.0500012e-03 
-5.4925597e-01 -4.9303770e-01 -1.1326991e-02 
-5.4712850e-01 -4.9077874e-01 -8.5283797e-03 
-5.4686081e-01 -4.9077323e-01 -1.4391376e-02 
-5.4573268e-01 -4.8925561e-01 -5.7668248e-03 
-5.5140239e-01 -4.9476889e-01 -2.2497135e-03 
-5.4473555e-01 -4.8852459e-01 -1.1691831e-02 
-5.4521132e-01 -4.8910952e-01 -1.4052792e-02 
-5.4796457e-01 -4.9144125e-01 -4.7587790e-03 
-5.4711324e-01 -4.9070305e-01 -7.2625051e-03 
-5.4495889e-01 -4.8846066e-01 -5.4267785e-03 
-5.4233670e-01 -4.8597106e-01 -8.3225695e-03 
-5.4206479e-01 -4.8596480e-01 -1.4243703e-02 
-5.4224527e-01 -4.8618007e-01 -1.5018897e-02 
-5.4219103e-01 -4.8565856e-01 -4.7317441e-03 
-5.4277605e-01 -4.8652071e-01 -1.0757047e-02 
-5.3992581e-01 -4.8370120e-01 -1.1530752e-02 
-5.3925508e-01 -4.8275328e-01 -5.4457355e-03 
-5.3887165e-01 -4.8261720e-01 -1.0906560e-02 
-5.4448187e-01 -4.8782006e-01 -1.9246764e-03 
-5.3866351e-01 -4.8254356e-01 -1.3834701e-02 
-5.4125035e-01 -4.8470524e-01 -4.5617195e-03 
-5.3751397e-01 -4.8113406e-01 -8.1221377e-03 
-5.3723919e-01 -4.8112583e-01 -1.4097135e-02 
-5.3838581e-01 -4.8186433e-01 -5.1163677e-03 
-5.4024148e-01 -4.8379499e-01 -6.7274445e-03 
-5.3563440e-01 -4.7955397e-01 -1.4823954e-02 
-5.3508753e-01 -4.7885060e-01 -1.1372788e-02 
-5.3563386e-01 -4.7907990e-01 -4.4100205e-03 
-5.3606212e-01 -4.7978640e-01 -1.0434495e-02 
-5.3266042e-01 -4.7626767e-01 -7.9171918e-03 
-5.3238791e-01 -4.7626454e-01 -1.3948471e-02 
-5.3263050e-01 -4.7611168e-01 -5.1227827e-03 
-5.3757250e-01 -4.8088512e-01 -1.6029383e-03 
-5.3197813e-01 -4.7584426e-01 -1.3610600e-02 
-5.3449547e-01 -4.7792920e-01 -4.2685219e-03 
-5.3021926e-01 -4.7397381e-01 -1.1210024e-02 
-5.3171670e-01 -4.7517768e-01 -4.8101884e-03 
-5.3350651e-01 -4.7702613e-01 -6.1177616e-03 
-5.2902156e-01 -4.7267780e-01 -8.9719901e-03 
-5.2888328e-01 -4.7279343e-01 -1.4628359e-02 
-5.2893215e-01 -4.7236198e-01 -4.0874602e-03 
-5.2777845e-01 -4.7137916e-01 -7.7123716e-03 
-5.2913058e-01 -4.7283259e-01 -9.9676717e-03 
-5.2687037e-01 -4.7075140e-01 -1.4024082e-02 
-5.2586401e-01 -4.6933115e-01 -4.7953762e-03 
-5.2531868e-01 -4.6906927e-01 -1.1048772e-02 
-5.3068477e-01 -4.7397968e-01 -1.2891314e-03 
-5.2516115e-01 -4.6900326e-01 -1.3025172e-02 
-5.2752107e-01 -4.7094569e-01 -4.0432303e-03 
-5.2519494e-01 -4.6864054e-01 -4.4733621e-03 
-5.2699542e-01 -4.7047380e-01 -5.1961215e-03 
-5.2288043e-01 -4.6647656e-01 -7.5305370e-03 
-5.2260488e-01 -4.6647260e-01 -1.3643772e-02 
-5.2198970e-01 -4.6589398e-01 -1.4426479e-02 
-5.2211630e-01 -4.6553668e-01 -3.7667395e-03 
-5.2042389e-01 -4.6417058e-01 -1.0886564e-02 
-5.2086872e-01 -4.6455657e-01 -9.5445868e-03 
-5.1900351e-01 -4.6246406e-01 -4.4679879e-03 
-5.2382201e-01 -4.6710640e-01 -9.8433555e-04 
-5.1800299e-01 -4.6159476e-01 -7.3646577e-03 
-5.1773071e-01 -4.6159416e-01 -1.3480035e-02 
-5.1827723e-01 -4.6213308e-01 -1.3206311e-02 
-5.2014261e-01 -4.6361202e-01 -4.8853443e-03 
-5.1916087e-01 -4.6257433e-01 -3.6401767e-03 
-5.1715595e-01 -4.6059674e-01 -4.1240319e-03 
-5.1556283e-01 -4.5930630e-01 -1.0723847e-02 
-5.1512820e-01 -4.5903069e-01 -1.4229723e-02 
-5.1531935e-01 -4.5873392e-01 -3.4425575e-03 
-5.1448792e-01 -4.5822975e-01 -1.0527004e-02 
-5.1316190e-01 -4.5675355e-01 -7.2041871e-03 
-5.1257133e-01 -4.5644513e-01 -1.3584787e-02 
-5.1225686e-01 -4.5571181e-01 -4.1500209e-03 
-5.1697558e-01 -4.6025518e-01 -6.8289094e-04 
-5.1146787e-01 -4.5532814e-01 -1.3043057e-02 
-5.1073527e-01 -4.5448023e-01 -1.0566198e-02 
-5.1143152e-01 -4.5486677e-01 -3.8269102e-03 
-5.1273662e-01 -4.5628464e-01 -6.2949155e-03 
-5.1337034e-01 -4.5675683e-01 -2.8005720e-03 
-5.1075757e-01 -4.5419329e-01 -3.8111871e-03 
-5.0836998e-01 -4.5227635e-01 -1.4030823e-02 
-5.0835067e-01 -4.5194542e-01 -7.0472178e-03 
-5.0808191e-01 -4.5194662e-01 -1.3155541e-02 
-5.0863481e-01 -4.5204452e-01 -3.1314828e-03 
-5.0773549e-01 -4.5148674e-01 -1.0434659e-02 
-5.0594342e-01 -4.4969323e-01 -1.0408026e-02 
-5.0562197e-01 -4.4907594e-01 -3.8466237e-03 
-5.1015025e-01 -4.5342973e-01 -3.7818015e-04 
-5.0476491e-01 -4.4863364e-01 -1.2879615e-02 
-5.0379050e-01 -4.4767681e-01 -1.3370686e-02 
-5.0358039e-01 -4.4718081e-01 -6.8956949e-03 
-5.0481194e-01 -4.4824505e-01 -3.5137739e-03 
-5.0655472e-01 -4.4994062e-01 -2.4974493e-03 
-5.0648493e-01 -4.4995168e-01 -4.2745327e-03 
-5.0171733e-01 -4.4563150e-01 -1.3835301e-02 
-5.0394922e-01 -4.4755742e-01 -7.2315047e-03 
-5.0205994e-01 -4.4547331e-01 -2.8317596e-03 
-5.0119042e-01 -4.4494426e-01 -1.0254091e-02 
-5.0299978e-01 -4.4643569e-01 -3.4779441e-03 
-5.0109023e-01 -4.4485563e-01 -1.0340832e-02 
-4.9884272e-01 -4.4244775e-01 -6.7437366e-03 
-4.9909511e-01 -4.4255632e-01 -3.5498114e-03 
-5.0333351e-01 -4.4661301e-01 -8.8947396e-05 
-4.9816653e-01 -4.4204888e-01 -1.2717189e-02 
-4.9763495e-01 -4.4153333e-01 -1.3241433e-02 
-4.9830252e-01 -4.4174269e-01 -3.2100000e-03 
-4.9646550e-01 -4.4023082e-01 -1.0098853e-02 
-4.9975246e-01 -4.4313771e-01 -2.1983548e-03 
-4.9968088e-01 -4.4314748e-01 -3.9733825e-03 
-4.9516645e-01 -4.3909690e-01 -1.3643190e-02 
-4.9559391e-01 -4.3901780e-01 -2.5424997e-03 
-4.9413651e-01 -4.3775544e-01 -6.5985150e-03 
-4.9387312e-01 -4.3775946e-01 -1.2679186e-02 
-4.9605101e-01 -4.3969494e-01 -7.4135126e-03 
-4.9621874e-01 -4.3966392e-01 -3.1984143e-03 
-4.9454898e-01 -4.3833524e-01 -1.0244885e-02 
-4.9280787e-01 -4.3658271e-01 -9.9838302e-03 
-4.9267912e-01 -4.3615392e-01 -3.2656502e-03 
-4.9177921e-01 -4.3555582e-01 -9.9450424e-03 
-4.9654111e-01 -4.3982530e-01 1.9609639e-04 
-4.9128395e-01 -4.3521833e-01 -1.3421975e-02 
-4.9167287e-01 -4.3557364e-01 -1.2554465e-02 
-4.9190313e-01 -4.3535554e-01 -2.9161281e-03 
-4.9297899e-01 -4.3637753e-01 -1.9084549e-03 
-4.9290526e-01 -4.3638638e-01 -3.6787416e-03 
-4.8946986e-01 -4.3310598e-01 -6.4565260e-03 
-4.8920259e-01 -4.3310478e-01 -1.2520621e-02 
-4.8906499e-01 -4.3277994e-01 -8.2625691e-03 
-4.8871633e-01 -4.3266800e-01 -1.3449124e-02 
-4.8903736e-01 -4.3271476e-01 -7.4047004e-03 
-4.8924068e-01 -4.3267891e-01 -2.2677844e-03 
-4.8929527e-01 -4.3295971e-01 -7.1084807e-03 
-4.8946607e-01 -4.3293011e-01 -2.9257990e-03 
-4.8811510e-01 -4.3192673e-01 -1.0142901e-02 
-4.8712969e-01 -4.3092406e-01 -9.7983973e-03 
-4.8663566e-01 -4.3058762e-01 -1.3262740e-02 
-4.8636988e-01 -4.2986435e-01 -2.9994398e-03 
-4.8507500e-01 -4.2898351e-01 -1.2156692e-02 
-4.8527646e-01 -4.2920530e-01 -1.2395272e-02 
-4.8977739e-01 -4.3307906e-01 4.7297761e-04 
-4.8493811e-01 -4.2873985e-01 -9.6925711e-03 
-4.8483890e-01 -4.2849153e-01 -6.3189180e-03 
-4.8561624e-01 -4.2908931e-01 -2.6274298e-03 
-4.8623401e-01 -4.2965651e-01 -1.6252917e-03 
-4.8615855e-01 -4.2966425e-01 -3.3908796e-03 
-4.8251918e-01 -4.2633316e-01 -9.6472939e-03 
-4.8237202e-01 -4.2635286e-01 -1.3260739e-02 
-4.8298517e-01 -4.2644888e-01 -2.0025314e-03 
-4.8177853e-01 -4.2562425e-01 -1.0053962e-02 
-4.8256844e-01 -4.2625523e-01 -6.8012667e-03 
-4.8274106e-01 -4.2623064e-01 -2.6528072e-03 
-4.8024756e-01 -4.2392215e-01 -6.1805616e-03 
-4.8017937e-01 -4.2399418e-01 -9.2750881e-03 
-4.7998291e-01 -4.2392686e-01 -1.2206986e-02 
-4.8016515e-01 -4.2368370e-01 -2.7352320e-03 
-4.7898245e-01 -4.2294094e-01 -1.2236202e-02 
-4.8304397e-01 -4.2637098e-01 7.4095716e-04 
-4.7942927e-01 -4.2292657e-01 -2.3552130e-03 
-4.7794256e-01 -4.2178079e-01 -9.5034409e-03 
-4.7745335e-01 -4.2144889e-01 -1.2964034e-02 
-4.7655463e-01 -4.2027217e-01 -6.6412510e-03 
-4.7684240e-01 -4.2033210e-01 -1.7474438e-03 
-4.7612265e-01 -4.2013565e-01 -1.3072652e-02 
-4.7951961e-01 -4.2296937e-01 -1.3497643e-03 
-4.7944257e-01 -4.2297551e-01 -3.1108963e-03 
-4.7580817e-01 -4.1964552e-01 -9.1488985e-03 