# vtk DataFile Version 4.0
vtk output
ASCII
DATASET UNSTRUCTURED_GRID
POINTS 6166 float
-4.3633327e-01 9.6409470e-01 4.4200001e+01 
-4.3633261e-01 9.6409082e-01 4.4079685e+01 
-3.2145375e-01 9.1276109e-01 4.4200001e+01 
-3.8566181e-01 8.4097892e-01 4.4200001e+01 
-3.3069235e-01 9.1895354e-01 4.4019413e+01 
-3.8473952e-01 8.3919770e-01 4.4024357e+01 
-4.3633196e-01 9.6408689e-01 4.3958702e+01 
-2.1293370e-01 8.4677851e-01 4.4200001e+01 
-2.9042658e-01 7.3813015e-01 4.4200001e+01 
-2.1019450e-01 8.4669626e-01 4.4077393e+01 
-2.8909999e-01 7.3605996e-01 4.4073399e+01 
-3.2963324e-01 9.1929907e-01 4.3898094e+01 
-3.8679782e-01 8.4179753e-01 4.3889645e+01 
-2.0740938e-01 8.4661204e-01 4.3952713e+01 
-4.3633130e-01 9.6408290e-01 4.3837040e+01 
-1.1677200e-01 7.7521002e-01 4.4200001e+01 
-2.8775173e-01 7.3395580e-01 4.3944717e+01 
-1.9365783e-01 6.6203654e-01 4.4200001e+01 
-1.1309985e-01 7.7540898e-01 4.4012005e+01 
-1.9181472e-01 6.5888047e-01 4.4006447e+01 
-3.2856464e-01 9.1964108e-01 4.3776085e+01 
-3.8823184e-01 8.4352189e-01 4.3765770e+01 
-2.0457739e-01 8.4652513e-01 4.3825886e+01 
-2.8638119e-01 7.3181647e-01 4.3813885e+01 
-4.3633065e-01 9.6407896e-01 4.3714680e+01 
-1.0911675e-01 7.7426714e-01 4.3886200e+01 
-2.1001574e-02 6.8269837e-01 4.4200001e+01 
-1.8902887e-01 6.5566909e-01 4.3876659e+01 
-7.8887597e-02 5.9015810e-01 4.4200001e+01 
-3.2748649e-01 9.1997939e-01 4.3653378e+01 
-3.9889076e-01 8.5876143e-01 4.3651733e+01 
-2.0169757e-01 8.4643483e-01 4.3696846e+01 
-7.2496021e-03 6.7325598e-01 4.3947758e+01 
-1.0504345e-01 7.7307969e-01 4.3758209e+01 
-2.8498772e-01 7.2964084e-01 4.3680840e+01 
-6.3224643e-02 5.7783771e-01 4.3940754e+01 
3.5808440e-02 6.2679136e-01 4.4056572e+01 
-1.8616955e-01 6.5238589e-01 4.3744686e+01 
-4.3632996e-01 9.6407503e-01 4.3591618e+01 
-9.8678423e-03 5.4892725e-01 4.4055367e+01 
-1.8652271e-02 6.8798620e-01 4.3834026e+01 
-7.9845116e-02 5.8636194e-01 4.3823372e+01 
8.7777540e-02 5.7885915e-01 4.4200001e+01 
5.3622175e-02 5.1732427e-01 4.4200001e+01 
-3.2639861e-01 9.2031354e-01 4.3529953e+01 
-3.9894739e-01 8.5844576e-01 4.3528313e+01 
-1.9876897e-01 8.4634024e-01 4.3565521e+01 
-1.0087753e-01 7.7184403e-01 4.3627972e+01 
-2.8357074e-01 7.2742778e-01 4.3545506e+01 
-1.8323407e-01 6.4902818e-01 4.3610458e+01 
-4.3632931e-01 9.6407109e-01 4.3467831e+01 
3.1033519e-03 6.6751039e-01 4.3691772e+01 
-5.3600248e-02 5.6906003e-01 4.3676846e+01 
1.2436585e-01 5.5082864e-01 4.3886215e+01 
1.7079005e-01 5.1095647e-01 4.4054855e+01 
1.4951277e-01 4.6697062e-01 4.4053665e+01 
1.0028158e-01 4.8915190e-01 4.3877911e+01 
-4.0513036e-01 8.6722642e-01 4.3405304e+01 
-3.2530096e-01 9.2064321e-01 4.3405800e+01 
-9.6616447e-02 7.7055699e-01 4.3495411e+01 
-8.4563000e-03 6.8258613e-01 4.3574005e+01 
-1.9579062e-01 8.4624058e-01 4.3431831e+01 
2.1753120e-01 4.7335833e-01 4.4200001e+01 
2.0360756e-01 4.4289169e-01 4.4200001e+01 
-1.8021962e-01 6.4559317e-01 4.3473904e+01 
-7.0636064e-02 5.7773441e-01 4.3555408e+01 
-2.8212959e-01 7.2517604e-01 4.3407806e+01 
-4.3632865e-01 9.6406716e-01 4.3343307e+01 
1.3810426e-01 5.4143524e-01 4.3628246e+01 
-3.2419339e-01 9.2096806e-01 4.3280907e+01 
-3.9903235e-01 8.5775709e-01 4.3279266e+01 
-9.2257597e-02 7.6921552e-01 4.3360443e+01 
1.1508528e-01 4.7804743e-01 4.3612068e+01 
-1.9276154e-01 8.4613472e-01 4.3295704e+01 
1.4013666e-02 6.6131532e-01 4.3426643e+01 
-1.7712323e-01 6.4207786e-01 4.3334946e+01 
-2.8066361e-01 7.2288430e-01 4.3267666e+01 
-4.3382257e-02 5.5983055e-01 4.3403778e+01 
-4.3632799e-01 9.6406323e-01 4.3218033e+01 
3.7877345e-01 3.8273901e-01 4.4200001e+01 
3.9076596e-01 3.7443376e-01 4.3993755e+01 
-3.2307580e-01 9.2128778e-01 4.3155251e+01 
-3.9906058e-01 8.5738426e-01 4.3153610e+01 
-8.7798268e-02 7.6781619e-01 4.3222996e+01 
1.9689407e-02 6.5803534e-01 4.3290459e+01 
-6.0862999e-02 5.6866169e-01 4.3278019e+01 
-1.8968078e-01 8.4602165e-01 4.3157055e+01 
-1.7394182e-01 6.3847917e-01 4.3193501e+01 
-4.3632734e-01 9.6405929e-01 4.3091995e+01 
4.0275589e-01 3.6612594e-01 4.3787510e+01 
1.2304078e-01 5.5709994e-01 4.3330139e+01 
-2.7917209e-01 7.2055119e-01 4.3125000e+01 
2.5336364e-01 4.4907436e-01 4.3468094e+01 
2.3670304e-01 4.1684708e-01 4.3469433e+01 
1.3086085e-01 4.6634668e-01 4.3336948e+01 
-3.8351217e-01 8.3473074e-01 4.3036392e+01 
-3.2194808e-01 9.2160189e-01 4.3028820e+01 
2.5518833e-02 6.5462554e-01 4.3151749e+01 
-8.3235659e-02 7.6635528e-01 4.3082981e+01 
4.1474071e-01 3.5781288e-01 4.3581264e+01 
-1.8654740e-01 8.4590012e-01 4.3015797e+01 
-3.2522827e-02 5.5011308e-01 4.3120937e+01 
-1.7067213e-01 6.3479382e-01 4.3049488e+01 
-4.3632668e-01 9.6405542e-01 4.2965172e+01 
-2.7765438e-01 7.1817529e-01 4.2979721e+01 
2.6620242e-01 4.4011977e-01 4.3261948e+01 
1.3584816e-02 6.7044950e-01 4.3025066e+01 
-3.2081014e-01 9.2191011e-01 4.2901604e+01 
-3.8160574e-01 8.3169121e-01 4.2902863e+01 
-7.8566879e-02 7.6482886e-01 4.2940315e+01 
-5.0480481e-02 5.5910730e-01 4.2990566e+01 
4.2671782e-01 3.4949207e-01 4.3375019e+01 
1.6821145e-01 5.2049083e-01 4.3083881e+01 
-1.8336046e-01 8.4576881e-01 4.2871841e+01 
-4.3632606e-01 9.6405160e-01 4.2837555e+01 
-1.6731077e-01 6.3101834e-01 4.2902817e+01 
1.4768846e-01 4.5400122e-01 4.3051926e+01 
-2.7610970e-01 7.1575516e-01 4.2831745e+01 
-3.1966189e-01 9.2221189e-01 4.2773579e+01 
-3.8560396e-01 8.3684862e-01 4.2767078e+01 
3.7660085e-02 6.4738947e-01 4.2866421e+01 
-7.3788933e-02 7.6323271e-01 4.2794899e+01 
4.3868470e-01 3.4116083e-01 4.3168777e+01 
-4.3632543e-01 9.6404779e-01 4.2709122e+01 
-2.0968946e-02 5.3986710e-01 4.2827656e+01 
-1.8011902e-01 8.4562629e-01 4.2725094e+01 
-1.6385415e-01 6.2714905e-01 4.2753403e+01 
-2.7453732e-01 7.1328926e-01 4.2680973e+01 
-3.1850323e-01 9.2250693e-01 4.2644733e+01 
-3.9907700e-01 8.5570478e-01 4.2643101e+01 
2.5504474e-02 6.6361672e-01 4.2734810e+01 
1.8471870e-01 5.0880390e-01 4.2796177e+01 
-6.8898737e-02 7.6156229e-01 4.2646645e+01 
-3.9438177e-02 5.4903054e-01 4.2692345e+01 
-4.3632481e-01 9.6404403e-01 4.2579861e+01 
4.5063871e-01 3.3281663e-01 4.2962532e+01 
1.6565691e-01 4.4095638e-01 4.2756321e+01 
-1.7682223e-01 8.4547096e-01 4.2575459e+01 
-1.6029853e-01 6.2318206e-01 4.2601143e+01 
-4.0415615e-01 8.6278629e-01 4.2516582e+01 
-3.1733403e-01 9.2279470e-01 4.2515053e+01 
-2.7293649e-01 7.1077597e-01 4.2527313e+01 
5.0482783e-02 6.3954860e-01 4.2569923e+01 
-4.3632418e-01 9.6404034e-01 4.2449757e+01 
-6.3893095e-02 7.5981271e-01 4.2495445e+01 
-8.6617703e-03 5.2904755e-01 4.2523201e+01 
-1.7346917e-01 8.4530097e-01 4.2422829e+01 
-1.5663996e-01 6.1911333e-01 4.2445942e+01 
3.0435190e-01 4.1341871e-01 4.2643494e+01 
4.6257737e-01 3.2445681e-01 4.2756287e+01 
-3.1615424e-01 9.2307472e-01 4.2384518e+01 
-3.9902648e-01 8.5475212e-01 4.2382885e+01 
-2.7130640e-01 7.0821363e-01 4.2370659e+01 
3.8079392e-02 6.5619886e-01 4.2433029e+01 
2.0230262e-01 4.9620378e-01 4.2497147e+01 
-4.3632355e-01 9.6403670e-01 4.2318787e+01 
-5.8768708e-02 7.5797862e-01 4.2341198e+01 
-2.7680276e-02 5.3838593e-01 4.2382599e+01 
1.8486446e-01 4.2715022e-01 4.2449394e+01 
-3.8436696e-01 8.3356136e-01 4.2264896e+01 
8.9545198e-02 5.3233254e-01 4.2382050e+01 
-3.3225983e-01 9.3122375e-01 4.2255634e+01 
-1.7005907e-01 8.4511453e-01 4.2267101e+01 
-1.5287429e-01 6.1493850e-01 4.2287693e+01 
4.7449806e-01 3.1607881e-01 4.2550037e+01 
-2.6964626e-01 7.0560038e-01 4.2210907e+01 
-4.3632296e-01 9.6403313e-01 4.2186939e+01 
6.4036883e-02 6.3103610e-01 4.2261456e+01 
-5.3522192e-02 7.5605446e-01 4.2183796e+01 
-3.7873057e-01 8.2541841e-01 4.2124020e+01 
-3.1376252e-01 9.2360973e-01 4.2120819e+01 
4.4639236e-03 5.1760370e-01 4.2206776e+01 
-1.6659111e-01 8.4490943e-01 4.2108162e+01 
-1.4899719e-01 6.1065292e-01 4.2126286e+01 
-4.3632239e-01 9.6402961e-01 4.2054195e+01 
4.8639825e-01 3.0768004e-01 4.2343792e+01 
-2.6795524e-01 7.0293444e-01 4.2047943e+01 
2.4746621e-01 4.6040925e-01 4.2191032e+01 
7.1105182e-02 6.2650448e-01 4.2102463e+01 
-3.1255043e-01 9.2386365e-01 4.1987617e+01 
-4.8150036e-02 7.5403398e-01 4.2023121e+01 
-1.5144684e-02 5.2712250e-01 4.2060505e+01 
-3.7995064e-01 8.2661813e-01 4.1980038e+01 
2.0541981e-01 4.1251117e-01 4.2130333e+01 
-1.6306458e-01 8.4468329e-01 4.1945896e+01 
-4.3632182e-01 9.6402621e-01 4.1920536e+01 
-1.4500406e-01 6.0625184e-01 4.1961609e+01 
1.3375351e-01 5.6370503e-01 4.1969833e+01 
-2.6623246e-01 7.0021385e-01 4.1881653e+01 
-3.1132740e-01 9.2410773e-01 4.1853493e+01 
-3.9880505e-01 8.5261923e-01 4.1851868e+01 
4.9827534e-01 2.9925787e-01 4.2137547e+01 
3.4194937e-01 3.8685825e-01 4.2025021e+01 
-4.2648647e-02 7.5191063e-01 4.1859051e+01 
-2.5401810e-01 7.9503769e-01 4.1808533e+01 
1.8480448e-02 5.0547802e-01 4.1877510e+01 
-4.3632126e-01 9.6402287e-01 4.1785946e+01 
-1.5947884e-01 8.4443361e-01 4.1780174e+01 
-1.4089009e-01 6.0172999e-01 4.1793541e+01 
-3.1009343e-01 9.2434150e-01 4.1718426e+01 
-4.0306881e-01 8.5845691e-01 4.1716179e+01 
8.5861288e-02 6.1683756e-01 4.1774368e+01 
-2.6447710e-01 6.9743657e-01 4.1711910e+01 
3.0427080e-01 4.1638452e-01 4.1839512e+01 
2.6751360e-01 3.7833902e-01 4.1830902e+01 
5.1012677e-01 2.9080975e-01 4.1931297e+01 
-3.7014309e-02 7.4967718e-01 4.1691463e+01 
-4.3632072e-01 9.6401966e-01 4.1650398e+01 
2.5847588e-02 4.9913955e-01 4.1707767e+01 
-1.5583332e-01 8.4415752e-01 4.1610870e+01 
-3.8322043e-01 8.2981020e-01 4.1595791e+01 
-3.0884841e-01 9.2456430e-01 4.1582397e+01 
-1.3665022e-01 5.9708190e-01 4.1621960e+01 
9.3565010e-02 6.1167872e-01 4.1605015e+01 
-2.6268822e-01 6.9460052e-01 4.1538593e+01 
-4.3632022e-01 9.6401656e-01 4.1513885e+01 
-3.1243213e-02 7.4732590e-01 4.1520226e+01 
2.7603787e-01 3.7115356e-01 4.1624012e+01 
2.8505871e-01 4.3281260e-01 4.1611507e+01 
5.2195001e-01 2.8233302e-01 4.1725052e+01 
3.3468332e-02 4.9260557e-01 4.1534447e+01 
-3.9853087e-01 8.5081697e-01 4.1443768e+01 
-3.2560509e-01 9.3245691e-01 4.1443577e+01 
-1.5212752e-01 8.4385180e-01 4.1437847e+01 
-1.3227913e-01 5.9230179e-01 4.1446728e+01 
-4.3631971e-01 9.6401358e-01 4.1376381e+01 
[...]
POINT_DATA 6166
FIELD FieldData 5
DISPLACEMENT 3 6166  float
3.1441066e+00 2.8686085e+00 -3.4224156e-01 
3.1255119e+00 2.8499129e+00 -3.3931595e-01 
3.1433187e+00 2.8677866e+00 -3.5200766e-01 
3.1449339e+00 2.8694744e+00 -3.3092970e-01 
3.1154485e+00 2.8397667e+00 -3.4715280e-01 
3.1177979e+00 2.8421919e+00 -3.2652515e-01 
3.1068139e+00 2.8311138e+00 -3.3637404e-01 
3.1427789e+00 2.8672240e+00 -3.5851401e-01 
3.1449857e+00 2.8695302e+00 -3.2965270e-01 
3.1237979e+00 2.8481393e+00 -3.5594365e-01 
3.1254275e+00 2.8498666e+00 -3.2645795e-01 
3.0966814e+00 2.8208976e+00 -3.4442046e-01 
3.0969729e+00 2.8212535e+00 -3.2333648e-01 
3.1044955e+00 2.8287311e+00 -3.5332945e-01 
3.0880110e+00 2.8122091e+00 -3.3341557e-01 
3.1424537e+00 2.8668859e+00 -3.6224291e-01 
3.1055479e+00 2.8298795e+00 -3.2321084e-01 
3.1447060e+00 2.8692398e+00 -3.3277184e-01 
3.1133525e+00 2.8376250e+00 -3.5827067e-01 
3.1148071e+00 2.8391795e+00 -3.2786050e-01 
3.0778086e+00 2.8019221e+00 -3.4167215e-01 
3.0778255e+00 2.8020024e+00 -3.2037184e-01 
3.0848615e+00 2.8089895e+00 -3.5066980e-01 
3.0853367e+00 2.8095596e+00 -3.1990999e-01 
3.0691013e+00 2.7931974e+00 -3.3044031e-01 
3.0938742e+00 2.8180399e+00 -3.5564965e-01 
3.1423779e+00 2.8668084e+00 -3.6265543e-01 
3.0947516e+00 2.8190160e+00 -3.2463658e-01 
3.1441593e+00 2.8686705e+00 -3.3932692e-01 
3.0588281e+00 2.7828383e+00 -3.3890754e-01 
3.0601528e+00 2.7842321e+00 -3.1832272e-01 
3.0648856e+00 2.7889042e+00 -3.4796304e-01 
3.1033380e+00 2.8275547e+00 -3.5717937e-01 
3.0740590e+00 2.7981160e+00 -3.5298240e-01 
3.0647838e+00 2.7888961e+00 -3.1655392e-01 
3.1040473e+00 2.8283398e+00 -3.3352879e-01 
3.1201782e+00 2.8444881e+00 -3.5925302e-01 
3.0743594e+00 2.7985137e+00 -3.2136056e-01 
3.0500832e+00 2.7740767e+00 -3.2744819e-01 
3.1214535e+00 2.8458288e+00 -3.4006271e-01 
3.0857267e+00 2.8098464e+00 -3.5494283e-01 
3.0860066e+00 2.8102052e+00 -3.2943320e-01 
3.1422775e+00 2.8667054e+00 -3.6331645e-01 
3.1434095e+00 2.8678889e+00 -3.4847364e-01 
3.0397382e+00 2.7636456e+00 -3.3612677e-01 
3.0410838e+00 2.7650609e+00 -3.1526580e-01 
3.0445571e+00 2.7684650e+00 -3.4520754e-01 
3.0538962e+00 2.7778430e+00 -3.5026705e-01 
3.0438786e+00 2.7678785e+00 -3.1314075e-01 
3.0536191e+00 2.7776623e+00 -3.1803027e-01 
3.0309548e+00 2.7548461e+00 -3.2443836e-01 
3.0637186e+00 2.7877185e+00 -3.5166168e-01 
3.0632463e+00 2.7873182e+00 -3.2723618e-01 
3.0936666e+00 2.8178267e+00 -3.5698172e-01 
3.1196353e+00 2.8439336e+00 -3.6205471e-01 
3.1202230e+00 2.8445551e+00 -3.5190058e-01 
3.0933952e+00 2.8175948e+00 -3.4347102e-01 
3.0220492e+00 2.7459233e+00 -3.1268746e-01 
3.0205371e+00 2.7443411e+00 -3.3332855e-01 
3.0333750e+00 2.7572100e+00 -3.4750190e-01 
3.0454829e+00 2.7693827e+00 -3.4935632e-01 
3.0238650e+00 2.7476606e+00 -3.4240156e-01 
3.1419427e+00 2.8663583e+00 -3.6695886e-01 
3.1424673e+00 2.8669066e+00 -3.6007130e-01 
3.0325210e+00 2.7564514e+00 -3.1464544e-01 
3.0445845e+00 2.7685602e+00 -3.2300285e-01 
3.0226099e+00 2.7464967e+00 -3.0967015e-01 
3.0117149e+00 2.7355034e+00 -3.2141209e-01 
3.0537417e+00 2.7776837e+00 -3.5137174e-01 
3.0012238e+00 2.7249255e+00 -3.3051491e-01 
3.0026124e+00 2.7263854e+00 -3.0909753e-01 
3.0124848e+00 2.7362065e+00 -3.4468502e-01 
3.0522597e+00 2.7762356e+00 -3.3756950e-01 
3.0027978e+00 2.7264805e+00 -3.3954298e-01 
3.0226889e+00 2.7464654e+00 -3.4593821e-01 
3.0110538e+00 2.7348697e+00 -3.1120428e-01 
3.0009668e+00 2.7247386e+00 -3.0613852e-01 
3.0210326e+00 2.7448783e+00 -3.2074663e-01 
2.9923613e+00 2.7160480e+00 -3.1836772e-01 
3.1410539e+00 2.8654315e+00 -3.7777889e-01 
3.1091299e+00 2.8333318e+00 -3.7332553e-01 
2.9817958e+00 2.7053938e+00 -3.2768357e-01 
2.9832072e+00 2.7068770e+00 -3.0598563e-01 
2.9912133e+00 2.7148213e+00 -3.4181452e-01 
3.0016179e+00 2.7252810e+00 -3.4299412e-01 
3.0017111e+00 2.7254586e+00 -3.1636786e-01 
2.9813437e+00 2.7049129e+00 -3.3662957e-01 
2.9892061e+00 2.7129068e+00 -3.0770546e-01 
2.9728923e+00 2.6964772e+00 -3.1530580e-01 
3.0772061e+00 2.8012328e+00 -3.6887127e-01 
3.0076761e+00 2.7313700e+00 -3.4423208e-01 
2.9789376e+00 2.7025945e+00 -3.0254623e-01 
3.0286784e+00 2.7524748e+00 -3.5092399e-01 
3.0294628e+00 2.7532866e+00 -3.4337413e-01 
3.0096915e+00 2.7334373e+00 -3.3150187e-01 
2.9651785e+00 2.6887584e+00 -3.0202404e-01 
2.9622521e+00 2.6857483e+00 -3.2483363e-01 
2.9801602e+00 2.7037098e+00 -3.3999386e-01 
2.9695489e+00 2.6930428e+00 -3.3888894e-01 
3.0452847e+00 2.7691374e+00 -3.6441547e-01 
2.9594910e+00 2.6829455e+00 -3.3366224e-01 
2.9773183e+00 2.7009339e+00 -3.1405094e-01 
2.9669647e+00 2.6905508e+00 -3.0414543e-01 
2.9533069e+00 2.6767907e+00 -3.1222573e-01 
2.9565098e+00 2.6800506e+00 -2.9889071e-01 
2.9967771e+00 2.7204003e+00 -3.4650224e-01 
2.9605551e+00 2.6840003e+00 -3.3753228e-01 
2.9425900e+00 2.6659865e+00 -3.2196710e-01 
2.9445703e+00 2.6680455e+00 -2.9860815e-01 
2.9474790e+00 2.6708579e+00 -3.3590564e-01 
2.9572959e+00 2.6808124e+00 -3.0951646e-01 
3.0133696e+00 2.7370467e+00 -3.5995534e-01 
2.9695163e+00 2.6930056e+00 -3.3953643e-01 
2.9372265e+00 2.6605663e+00 -3.3063594e-01 
2.9336016e+00 2.6569860e+00 -3.0912670e-01 
2.9443190e+00 2.6677895e+00 -3.0052662e-01 
2.9656026e+00 2.6891158e+00 -3.2526621e-01 
2.9336703e+00 2.6570966e+00 -2.9517078e-01 
2.9228079e+00 2.6461051e+00 -3.1908190e-01 
2.9235957e+00 2.6469641e+00 -2.9550350e-01 
2.9360361e+00 2.6593568e+00 -3.3381394e-01 
2.9249909e+00 2.6482549e+00 -3.3286270e-01 
2.9814558e+00 2.7049611e+00 -3.5549459e-01 
2.9137762e+00 2.6370635e+00 -3.0601126e-01 
2.9320076e+00 2.6553922e+00 -3.0713645e-01 
2.9145377e+00 2.6377635e+00 -3.2754889e-01 
2.9212537e+00 2.6446104e+00 -2.9684275e-01 
2.9104080e+00 2.6337199e+00 -2.9138640e-01 
2.9029069e+00 2.6261058e+00 -3.1617799e-01 
2.9044058e+00 2.6276777e+00 -2.9335195e-01 
2.9156795e+00 2.6388953e+00 -3.3126214e-01 
2.9250278e+00 2.6482878e+00 -3.3328640e-01 
2.9020720e+00 2.6252215e+00 -3.2975659e-01 
2.9112384e+00 2.6345246e+00 -3.0243662e-01 
2.8938320e+00 2.6170223e+00 -3.0288011e-01 
2.9495559e+00 2.6728954e+00 -3.5103458e-01 
2.9198947e+00 2.6431723e+00 -3.1884927e-01 
2.8914123e+00 2.6145260e+00 -3.2439989e-01 
2.8977606e+00 2.6210024e+00 -2.9309934e-01 
2.8848641e+00 2.6080432e+00 -2.9060888e-01 
2.8828847e+00 2.6059906e+00 -3.1325990e-01 
2.8867114e+00 2.6099081e+00 -2.8753239e-01 
2.8902180e+00 2.6133099e+00 -3.2737926e-01 
2.8737648e+00 2.5968609e+00 -2.9972887e-01 
2.8787119e+00 2.6017492e+00 -3.2658735e-01 
2.8850040e+00 2.6081600e+00 -2.9999861e-01 
2.8678362e+00 2.5908384e+00 -3.2118669e-01 
2.8738279e+00 2.5969558e+00 -2.8928682e-01 
2.9011364e+00 2.6242673e+00 -3.3323291e-01 
2.9176714e+00 2.6408513e+00 -3.4657460e-01 
2.8627381e+00 2.5857470e+00 -3.1032267e-01 
2.8642812e+00 2.5873632e+00 -2.8692794e-01 
2.8625643e+00 2.5856495e+00 -2.8360835e-01 
2.8690639e+00 2.5920556e+00 -3.2473430e-01 
2.8788257e+00 2.6018603e+00 -3.2679608e-01 
2.8535733e+00 2.5765762e+00 -2.9656205e-01 
2.8548896e+00 2.5778160e+00 -3.2335389e-01 
2.8634431e+00 2.5865037e+00 -2.9512364e-01 
2.8724711e+00 2.5955210e+00 -3.1224784e-01 
2.8461647e+00 2.5691667e+00 -2.8306168e-01 
2.8620183e+00 2.5850146e+00 -3.1223357e-01 
2.8429747e+00 2.5658979e+00 -3.0598241e-01 
2.8437946e+00 2.5666862e+00 -3.1790724e-01 
2.8494315e+00 2.5724504e+00 -2.8541073e-01 
2.8858016e+00 2.6088207e+00 -3.4210801e-01 
2.8379524e+00 2.5609291e+00 -2.7961704e-01 
2.8332598e+00 2.5561736e+00 -2.9337794e-01 
2.8425932e+00 2.5654638e+00 -3.2067722e-01 
2.8305962e+00 2.5534115e+00 -3.2005030e-01 
2.8244872e+00 2.5473988e+00 -2.7927667e-01 
2.8220766e+00 2.5449030e+00 -3.0439007e-01 
2.8361928e+00 2.5591271e+00 -2.9262114e-01 
2.8192739e+00 2.5420570e+00 -3.1456277e-01 
2.8245628e+00 2.5474751e+00 -2.8146127e-01 
2.8128197e+00 2.5356452e+00 -2.9017371e-01 
2.8539488e+00 2.5768197e+00 -3.3764294e-01 
2.8128617e+00 2.5357323e+00 -2.7555165e-01 
2.8315077e+00 2.5543244e+00 -3.2080445e-01 
2.8180718e+00 2.5408306e+00 -3.1722128e-01 
2.8015535e+00 2.5242975e+00 -3.0139807e-01 
2.8058140e+00 2.5285223e+00 -3.1667340e-01 
2.8137872e+00 2.5366316e+00 -2.8756207e-01 
2.8023179e+00 2.5251391e+00 -2.7581283e-01 
2.8232150e+00 2.5460403e+00 -3.0544883e-01 
2.7942586e+00 2.5169358e+00 -3.1114426e-01 
2.7922468e+00 2.5149915e+00 -2.8694937e-01 
2.7992096e+00 2.5220196e+00 -2.7744913e-01 
2.7976251e+00 2.5203021e+00 -3.1394199e-01 
2.7872798e+00 2.5100508e+00 -2.7141607e-01 
2.7809024e+00 2.5035660e+00 -2.9838410e-01 
2.7825263e+00 2.5052657e+00 -2.7386165e-01 
2.8221307e+00 2.5448639e+00 -3.3318126e-01 
2.8056610e+00 2.5283563e+00 -3.1994948e-01 
2.7805338e+00 2.5031383e+00 -3.1322283e-01 
2.7747953e+00 2.4974680e+00 -2.8618142e-01 
2.7854657e+00 2.5081923e+00 -2.8499958e-01 
2.7715511e+00 2.4942210e+00 -2.8371063e-01 
2.7687397e+00 2.4913206e+00 -3.0764499e-01 
2.7733610e+00 2.4960721e+00 -2.7337435e-01 
2.7601254e+00 2.4827144e+00 -2.9535407e-01 
2.7616539e+00 2.4843214e+00 -2.7086604e-01 
2.7675281e+00 2.4900837e+00 -3.1006810e-01 
2.7611933e+00 2.4838734e+00 -2.6721123e-01 
2.7772214e+00 2.4998057e+00 -3.1425175e-01 
2.7767725e+00 2.4993956e+00 -3.0251896e-01 
2.7903268e+00 2.5129199e+00 -3.2870796e-01 
2.7547443e+00 2.4772511e+00 -3.0969572e-01 
2.7507272e+00 2.4733276e+00 -2.8046256e-01 
2.7593541e+00 2.4819875e+00 -2.8110403e-01 
2.7427030e+00 2.4651902e+00 -3.0407470e-01 
2.7432563e+00 2.4658680e+00 -2.6663128e-01 
2.7392299e+00 2.4617498e+00 -2.9230362e-01 
2.7469976e+00 2.4696236e+00 -2.6921794e-01 
2.7414889e+00 2.4639504e+00 -3.0638590e-01 
2.7345955e+00 2.4571891e+00 -2.6292989e-01 
2.7297885e+00 2.4523168e+00 -2.7719948e-01 
2.7284207e+00 2.4508417e+00 -3.0609059e-01 
2.7449610e+00 2.4674716e+00 -2.9776281e-01 
2.7422302e+00 2.4646900e+00 -3.0835262e-01 
2.7585673e+00 2.4810379e+00 -3.2423881e-01 
2.7327225e+00 2.4552712e+00 -2.7714068e-01 
2.7198896e+00 2.4424193e+00 -2.6390079e-01 
2.7180574e+00 2.4405100e+00 -2.8762361e-01 
2.7161248e+00 2.4385333e+00 -3.0043283e-01 
2.7201123e+00 2.4426594e+00 -2.6500016e-01 
2.7087126e+00 2.4311802e+00 -2.7391210e-01 
2.7187989e+00 2.4411917e+00 -3.0282146e-01 
2.7074616e+00 2.4299796e+00 -2.5857770e-01 
2.7015572e+00 2.4238992e+00 -3.0240813e-01 
2.6970508e+00 2.4194472e+00 -2.8616408e-01 
2.6987436e+00 2.4212236e+00 -2.6054448e-01 
2.7055585e+00 2.4280324e+00 -2.7311695e-01 
2.7146449e+00 2.4370599e+00 -2.9427025e-01 
2.7268574e+00 2.4492192e+00 -3.1977656e-01 
2.6890006e+00 2.4113340e+00 -2.9671144e-01 
2.7089462e+00 2.4313033e+00 -3.0450776e-01 
2.6875048e+00 2.4099252e+00 -2.7060157e-01 
2.6926854e+00 2.4151640e+00 -2.6071009e-01 
2.6908305e+00 2.4131501e+00 -2.9879183e-01 
2.6757593e+00 2.3981109e+00 -2.8306222e-01 
2.6774702e+00 2.3999133e+00 -2.5717342e-01 
2.6797798e+00 2.4022350e+00 -2.5414628e-01 
2.6741312e+00 2.3964052e+00 -2.9864576e-01 
2.6778455e+00 2.4002569e+00 -2.6902914e-01 
2.6661649e+00 2.3885489e+00 -2.6728535e-01 
2.6843894e+00 2.4067347e+00 -2.8880572e-01 
2.6952024e+00 2.4174707e+00 -3.1531501e-01 
2.6613028e+00 2.3835762e+00 -2.9290897e-01 
2.6646976e+00 2.3871226e+00 -2.5634587e-01 
2.6782086e+00 2.4004893e+00 -3.0043748e-01 
2.6543393e+00 2.3766494e+00 -2.7994215e-01 
2.6560712e+00 2.3784754e+00 -2.5378948e-01 
2.6616879e+00 2.3839455e+00 -2.9465753e-01 
2.6515276e+00 2.3739386e+00 -2.4963641e-01 
2.6446962e+00 2.3670418e+00 -2.6395950e-01 
2.6461215e+00 2.3683448e+00 -2.9479891e-01 
2.6495612e+00 2.3719239e+00 -2.6487523e-01 
2.6327939e+00 2.3550720e+00 -2.7680990e-01 
2.6345398e+00 2.3569074e+00 -2.5038299e-01 
2.6330118e+00 2.3552442e+00 -2.8902724e-01 
2.6636066e+00 2.3857975e+00 -3.1085610e-01 
2.6361308e+00 2.3585193e+00 -2.5190699e-01 
2.6486685e+00 2.3709502e+00 -2.8255492e-01 
2.6477168e+00 2.3699348e+00 -2.9645175e-01 
2.6230929e+00 2.3454127e+00 -2.6060539e-01 
2.6320696e+00 2.3542798e+00 -2.9045111e-01 
2.6226878e+00 2.3450716e+00 -2.4505292e-01 
2.6175168e+00 2.3397033e+00 -2.9086077e-01 
2.6249299e+00 2.3472540e+00 -2.6330715e-01 
2.6111000e+00 2.3333604e+00 -2.7365807e-01 
2.6128719e+00 2.3352299e+00 -2.4698345e-01 
2.6041172e+00 2.3263230e+00 -2.8505233e-01 
2.6320632e+00 2.3541908e+00 -3.0642498e-01 
2.6013548e+00 2.3236704e+00 -2.5726184e-01 
2.6069763e+00 2.3293421e+00 -2.4739386e-01 
2.6167970e+00 2.3389711e+00 -2.9201505e-01 
2.6142228e+00 2.3364475e+00 -2.7999264e-01 
2.6023462e+00 2.3245244e+00 -2.8624240e-01 
2.5892849e+00 2.3115399e+00 -2.7050549e-01 
2.5910635e+00 2.3134220e+00 -2.4356149e-01 
2.5932579e+00 2.3156276e+00 -2.4038039e-01 
2.5882998e+00 2.3104677e+00 -2.8683245e-01 
2.5954041e+00 2.3177025e+00 -2.6037326e-01 
2.5794773e+00 2.3017895e+00 -2.5389296e-01 
2.5746145e+00 2.2968054e+00 -2.8099144e-01 
2.5755415e+00 2.2978394e+00 -2.5600648e-01 
2.6005886e+00 2.3226848e+00 -3.0199599e-01 
2.5772138e+00 2.2995760e+00 -2.4280588e-01 
2.5862310e+00 2.3083801e+00 -2.8717077e-01 
2.5673332e+00 2.2895892e+00 -2.6731065e-01 
2.5691199e+00 2.2914743e+00 -2.4011588e-01 
2.5723641e+00 2.2945316e+00 -2.8204378e-01 
2.5829148e+00 2.3051131e+00 -2.7656454e-01 
2.5632043e+00 2.2855806e+00 -2.3563793e-01 
2.5574718e+00 2.2797861e+00 -2.5049466e-01 
2.5584483e+00 2.2806160e+00 -2.8271687e-01 
2.5648651e+00 2.2871690e+00 -2.5612763e-01 
2.5452354e+00 2.2675009e+00 -2.6411676e-01 
2.5470552e+00 2.2694218e+00 -2.3667015e-01 
2.5444417e+00 2.2666545e+00 -2.7682960e-01 
2.5691650e+00 2.2912421e+00 -2.9757300e-01 
2.5468206e+00 2.2692013e+00 -2.3814400e-01 
2.5555027e+00 2.2776487e+00 -2.8275463e-01 
2.5353220e+00 2.2576599e+00 -2.4710184e-01 
2.5419874e+00 2.2641709e+00 -2.7776784e-01 
2.5522020e+00 2.2743986e+00 -2.7360907e-01 
2.5299370e+00 2.2522490e+00 -2.5638855e-01 
2.5325115e+00 2.2549229e+00 -2.3079742e-01 
2.5279377e+00 2.2501316e+00 -2.7850008e-01 
2.5230062e+00 2.2453091e+00 -2.6091087e-01 
2.5332990e+00 2.2556288e+00 -2.5236928e-01 
2.5222256e+00 2.2446320e+00 -2.3167802e-01 
2.5136178e+00 2.2358675e+00 -2.7258694e-01 
2.5130270e+00 2.2354059e+00 -2.4368459e-01 
2.5378356e+00 2.2599294e+00 -2.9315802e-01 
2.5157950e+00 2.2382162e+00 -2.3504208e-01 
2.5237510e+00 2.2459364e+00 -2.7786845e-01 
2.5121703e+00 2.2343845e+00 -2.7376252e-01 
2.5224164e+00 2.2446332e+00 -2.7229306e-01 
2.5007114e+00 2.2230577e+00 -2.5759503e-01 
2.5025480e+00 2.2249925e+00 -2.2976722e-01 
2.5011616e+00 2.2236264e+00 -2.2588195e-01 
2.4968989e+00 2.2191486e+00 -2.7419987e-01 
2.4907529e+00 2.2131755e+00 -2.4028569e-01 
2.4956951e+00 2.2180870e+00 -2.4731141e-01 
2.4823632e+00 2.2046840e+00 -2.6828349e-01 
2.5066173e+00 2.2287576e+00 -2.8874809e-01 
2.4785089e+00 2.2008965e+00 -2.5423017e-01 
2.4803557e+00 2.2028430e+00 -2.2639395e-01 
2.4845226e+00 2.2070158e+00 -2.2839592e-01 
2.4912360e+00 2.2135093e+00 -2.6792505e-01 
2.4857213e+00 2.2079790e+00 -2.7265197e-01 
2.4755878e+00 2.1978912e+00 -2.6857209e-01 
2.4686275e+00 2.1910987e+00 -2.3692352e-01 
2.4699550e+00 2.1924932e+00 -2.2098790e-01 
2.4659140e+00 2.1882379e+00 -2.6994124e-01 
2.4669249e+00 2.1894193e+00 -2.3745324e-01 
2.4564719e+00 2.1789196e+00 -2.5088346e-01 
2.4571626e+00 2.1797111e+00 -2.2160125e-01 
2.4516225e+00 2.1740193e+00 -2.6404864e-01 
2.4754682e+00 2.1976802e+00 -2.8435436e-01 
2.4535527e+00 2.1761394e+00 -2.2339998e-01 
2.4466562e+00 2.1691942e+00 -2.3357800e-01 
2.4494188e+00 2.1717873e+00 -2.6509190e-01 
2.4579775e+00 2.1803880e+00 -2.5526679e-01 
2.4594736e+00 2.1817980e+00 -2.7164593e-01 
2.4472032e+00 2.1695795e+00 -2.6473397e-01 
2.4392076e+00 2.1618443e+00 -2.1620698e-01 
2.4345706e+00 2.1570923e+00 -2.4755411e-01 
2.4364166e+00 2.1590343e+00 -2.1974388e-01 
2.4354408e+00 2.1578424e+00 -2.6573494e-01 
2.4362326e+00 2.1588285e+00 -2.3219240e-01 
2.4248409e+00 2.1474636e+00 -2.3027581e-01 
2.4213910e+00 2.1438820e+00 -2.5986302e-01 
2.4444022e+00 2.1667106e+00 -2.8001216e-01 
2.4230568e+00 2.1457553e+00 -2.1851338e-01 
2.4172626e+00 2.1399660e+00 -2.1520935e-01 
2.4128525e+00 2.1354599e+00 -2.4424948e-01 
2.4192164e+00 2.1416738e+00 -2.6095605e-01 
2.4284544e+00 2.1508720e+00 -2.6731062e-01 
2.4290781e+00 2.1515329e+00 -2.5923055e-01 
2.4089317e+00 2.1316845e+00 -2.1151911e-01 
2.4183133e+00 2.1408765e+00 -2.4362263e-01 
2.4054651e+00 2.1279802e+00 -2.6159185e-01 
2.4032004e+00 2.1259015e+00 -2.2699836e-01 
2.4119065e+00 2.1343923e+00 -2.5974965e-01 
2.4060154e+00 2.1287358e+00 -2.2705063e-01 
2.3912771e+00 2.1139665e+00 -2.4097984e-01 
2.3916454e+00 2.1142662e+00 -2.5575775e-01 
2.4133797e+00 2.1357818e+00 -2.7561653e-01 
2.3930273e+00 2.1158607e+00 -2.1373096e-01 
2.3893085e+00 2.1121330e+00 -2.1066017e-01 
2.3895125e+00 2.1120996e+00 -2.5689504e-01 
2.3816824e+00 2.1044970e+00 -2.2375858e-01 
2.3974881e+00 2.1200001e+00 -2.6297745e-01 
2.3980997e+00 2.1206517e+00 -2.5490239e-01 
2.3791122e+00 2.1020184e+00 -2.0692316e-01 
2.3759809e+00 2.0986392e+00 -2.5751552e-01 
2.3698478e+00 2.0926580e+00 -2.3771952e-01 
2.3716836e+00 2.0945854e+00 -2.1002343e-01 
2.3824735e+00 2.1052144e+00 -2.3619340e-01 
2.3810477e+00 2.1036687e+00 -2.5537068e-01 
2.3762615e+00 2.0991359e+00 -2.2202736e-01 
2.3665836e+00 2.0894773e+00 -2.2149734e-01 
2.3623998e+00 2.0851779e+00 -2.5171280e-01 
2.3603365e+00 2.0832646e+00 -2.2055593e-01 
2.3824582e+00 2.1049740e+00 -2.7124351e-01 
2.3609207e+00 2.0839159e+00 -2.0461898e-01 
2.3634624e+00 2.0864532e+00 -2.0905873e-01 
2.3603048e+00 2.0830429e+00 -2.5290534e-01 
2.3666470e+00 2.0893126e+00 -2.5866085e-01 
2.3672426e+00 2.0899544e+00 -2.5060278e-01 
2.3485937e+00 2.0715401e+00 -2.3449290e-01 
2.3503969e+00 2.0734324e+00 -2.0685805e-01 
2.3483903e+00 2.0713582e+00 -2.2611471e-01 
2.3497376e+00 2.0728197e+00 -2.0244060e-01 
2.3484900e+00 2.0714421e+00 -2.3007770e-01 
2.3470078e+00 2.0698237e+00 -2.5349376e-01 
2.3516972e+00 2.0746291e+00 -2.3197444e-01 
2.3503096e+00 2.0731084e+00 -2.5101271e-01 
2.3469777e+00 2.0700283e+00 -2.1714339e-01 
2.3391590e+00 2.0622256e+00 -2.1736938e-01 
2.3397253e+00 2.0628612e+00 -2.0148043e-01 
2.3336434e+00 2.0566008e+00 -2.4770182e-01 
2.3313825e+00 2.0545435e+00 -2.0507628e-01 
2.3343315e+00 2.0575211e+00 -2.0447472e-01 
2.3516607e+00 2.0743463e+00 -2.6689076e-01 
2.3306749e+00 2.0537977e+00 -2.1629044e-01 
2.3274999e+00 2.0505791e+00 -2.3128799e-01 
2.3316002e+00 2.0545249e+00 -2.4901311e-01 
2.3359272e+00 2.0587940e+00 -2.5436807e-01 
2.3365090e+00 2.0594261e+00 -2.4632737e-01 
2.3181465e+00 2.0413640e+00 -2.1424729e-01 
2.3208342e+00 2.0441267e+00 -1.9804879e-01 
2.3184769e+00 2.0414972e+00 -2.4953105e-01 
2.3181379e+00 2.0414009e+00 -2.1231084e-01 
2.3210363e+00 2.0441694e+00 -2.2781032e-01 
2.3196838e+00 2.0426915e+00 -2.4670306e-01 
2.3065772e+00 2.0298133e+00 -2.2813484e-01 
2.3087556e+00 2.0320482e+00 -2.1424039e-01 
2.3083560e+00 2.0317037e+00 -2.0066033e-01 
2.3053493e+00 2.0285075e+00 -2.4378712e-01 
2.3056562e+00 2.0290537e+00 -1.9999750e-01 
2.3209949e+00 2.0438850e+00 -2.6255301e-01 
2.3033516e+00 2.0264778e+00 -2.4515067e-01 
2.2972891e+00 2.0206752e+00 -2.1113469e-01 
2.2978492e+00 2.0213032e+00 -1.9525658e-01 
2.2914336e+00 2.0147922e+00 -2.2324349e-01 
2.2904515e+00 2.0136783e+00 -2.4564154e-01 
2.2923541e+00 2.0158708e+00 -1.9375107e-01 
2.3053391e+00 2.0284224e+00 -2.5009197e-01 
2.3059084e+00 2.0290427e+00 -2.4206720e-01 
2.2887199e+00 2.0121698e+00 -2.1119933e-01 
2.2873039e+00 2.0107303e+00 -2.1944904e-01 
2.2857893e+00 2.0092037e+00 -2.2499827e-01 
2.2875695e+00 2.0110979e+00 -1.9760112e-01 
2.2897224e+00 2.0132215e+00 -2.0761190e-01 
2.2904868e+00 2.0138705e+00 -2.2363640e-01 
2.2891653e+00 2.0124168e+00 -2.4239628e-01 
2.2775335e+00 2.0009203e+00 -2.3992209e-01 
2.2765791e+00 2.0001588e+00 -2.0806868e-01 
2.2771404e+00 2.0007877e+00 -1.9221574e-01 
2.2774403e+00 2.0010982e+00 -1.9563888e-01 
2.2755489e+00 1.9989017e+00 -2.4139160e-01 
2.2904475e+00 2.0135667e+00 -2.5822994e-01 
2.2651598e+00 1.9887670e+00 -2.2189464e-01 
2.2669473e+00 1.9906663e+00 -1.9458060e-01 
2.2642231e+00 1.9878620e+00 -2.1453774e-01 
2.2628751e+00 1.9863496e+00 -2.4181697e-01 
2.2643106e+00 1.9880904e+00 -1.8951705e-01 
2.2748520e+00 1.9981834e+00 -2.4582849e-01 
2.2754109e+00 1.9987942e+00 -2.3782341e-01 
2.2560203e+00 1.9797959e+00 -2.0505477e-01 