# vtk DataFile Version 4.0
vtk output
ASCII
DATASET UNSTRUCTURED_GRID
POINTS 6166 float
-4.3633327e-01 9.6409470e-01 4.4200001e+01 
-4.3633261e-01 9.6409082e-01 4.4079685e+01 
-3.2145375e-01 9.1276109e-01 4.4200001e+01 
-3.8566181e-01 8.4097892e-01 4.4200001e+01 
-3.3069235e-01 9.1895354e-01 4.4019413e+01 
-3.8473952e-01 8.3919770e-01 4.4024357e+01 
-4.3633196e-01 9.6408689e-01 4.3958702e+01 
-2.1293370e-01 8.4677851e-01 4.4200001e+01 
-2.9042658e-01 7.3813015e-01 4.4200001e+01 
-2.1019450e-01 8.4669626e-01 4.4077393e+01 
-2.8909999e-01 7.3605996e-01 4.4073399e+01 
-3.2963324e-01 9.1929907e-01 4.3898094e+01 
-3.8679782e-01 8.4179753e-01 4.3889645e+01 
-2.0740938e-01 8.4661204e-01 4.3952713e+01 
-4.3633130e-01 9.6408290e-01 4.3837040e+01 
-1.1677200e-01 7.7521002e-01 4.4200001e+01 
-2.8775173e-01 7.3395580e-01 4.3944717e+01 
-1.9365783e-01 6.6203654e-01 4.4200001e+01 
-1.1309985e-01 7.7540898e-01 4.4012005e+01 
-1.9181472e-01 6.5888047e-01 4.4006447e+01 
-3.2856464e-01 9.1964108e-01 4.3776085e+01 
-3.8823184e-01 8.4352189e-01 4.3765770e+01 
-2.0457739e-01 8.4652513e-01 4.3825886e+01 
-2.8638119e-01 7.3181647e-01 4.3813885e+01 
-4.3633065e-01 9.6407896e-01 4.3714680e+01 
-1.0911675e-01 7.7426714e-01 4.3886200e+01 
-2.1001574e-02 6.8269837e-01 4.4200001e+01 
-1.8902887e-01 6.5566909e-01 4.3876659e+01 
-7.8887597e-02 5.9015810e-01 4.4200001e+01 
-3.2748649e-01 9.1997939e-01 4.3653378e+01 
-3.9889076e-01 8.5876143e-01 4.3651733e+01 
-2.0169757e-01 8.4643483e-01 4.3696846e+01 
-7.2496021e-03 6.7325598e-01 4.3947758e+01 
-1.0504345e-01 7.7307969e-01 4.3758209e+01 
-2.8498772e-01 7.2964084e-01 4.3680840e+01 
-6.3224643e-02 5.7783771e-01 4.3940754e+01 
3.5808440e-02 6.2679136e-01 4.4056572e+01 
-1.8616955e-01 6.5238589e-01 4.3744686e+01 
-4.3632996e-01 9.6407503e-01 4.3591618e+01 
-9.8678423e-03 5.4892725e-01 4.4055367e+01 
-1.8652271e-02 6.8798620e-01 4.3834026e+01 
-7.9845116e-02 5.8636194e-01 4.3823372e+01 
8.7777540e-02 5.7885915e-01 4.4200001e+01 
5.3622175e-02 5.1732427e-01 4.4200001e+01 
-3.2639861e-01 9.2031354e-01 4.3529953e+01 
-3.9894739e-01 8.5844576e-01 4.3528313e+01 
-1.9876897e-01 8.4634024e-01 4.3565521e+01 
-1.0087753e-01 7.7184403e-01 4.3627972e+01 
-2.8357074e-01 7.2742778e-01 4.3545506e+01 
-1.8323407e-01 6.4902818e-01 4.3610458e+01 
-4.3632931e-01 9.6407109e-01 4.3467831e+01 
3.1033519e-03 6.6751039e-01 4.3691772e+01 
-5.3600248e-02 5.6906003e-01 4.3676846e+01 
1.2436585e-01 5.5082864e-01 4.3886215e+01 
1.7079005e-01 5.1095647e-01 4.4054855e+01 
1.4951277e-01 4.6697062e-01 4.4053665e+01 
1.0028158e-01 4.8915190e-01 4.3877911e+01 
-4.0513036e-01 8.6722642e-01 4.3405304e+01 
-3.2530096e-01 9.2064321e-01 4.3405800e+01 
-9.6616447e-02 7.7055699e-01 4.3495411e+01 
-8.4563000e-03 6.8258613e-01 4.3574005e+01 
-1.9579062e-01 8.4624058e-01 4.3431831e+01 
2.1753120e-01 4.7335833e-01 4.4200001e+01 
2.0360756e-01 4.4289169e-01 4.4200001e+01 
-1.8021962e-01 6.4559317e-01 4.3473904e+01 
-7.0636064e-02 5.7773441e-01 4.3555408e+01 
-2.8212959e-01 7.2517604e-01 4.3407806e+01 
-4.3632865e-01 9.6406716e-01 4.3343307e+01 
1.3810426e-01 5.4143524e-01 4.3628246e+01 
-3.2419339e-01 9.2096806e-01 4.3280907e+01 
-3.9903235e-01 8.5775709e-01 4.3279266e+01 
-9.2257597e-02 7.6921552e-01 4.3360443e+01 
1.1508528e-01 4.7804743e-01 4.3612068e+01 
-1.9276154e-01 8.4613472e-01 4.3295704e+01 
1.4013666e-02 6.6131532e-01 4.3426643e+01 
-1.7712323e-01 6.4207786e-01 4.3334946e+01 
-2.8066361e-01 7.2288430e-01 4.3267666e+01 
-4.3382257e-02 5.5983055e-01 4.3403778e+01 
-4.3632799e-01 9.6406323e-01 4.3218033e+01 
3.7877345e-01 3.8273901e-01 4.4200001e+01 
3.9076596e-01 3.7443376e-01 4.3993755e+01 
-3.2307580e-01 9.2128778e-01 4.3155251e+01 
-3.9906058e-01 8.5738426e-01 4.3153610e+01 
-8.7798268e-02 7.6781619e-01 4.3222996e+01 
1.9689407e-02 6.5803534e-01 4.3290459e+01 
-6.0862999e-02 5.6866169e-01 4.3278019e+01 
-1.8968078e-01 8.4602165e-01 4.3157055e+01 
-1.7394182e-01 6.3847917e-01 4.3193501e+01 
-4.3632734e-01 9.6405929e-01 4.3091995e+01 
4.0275589e-01 3.6612594e-01 4.3787510e+01 
1.2304078e-01 5.5709994e-01 4.3330139e+01 
-2.7917209e-01 7.2055119e-01 4.3125000e+01 
2.5336364e-01 4.4907436e-01 4.3468094e+01 
2.3670304e-01 4.1684708e-01 4.3469433e+01 
1.3086085e-01 4.6634668e-01 4.3336948e+01 
-3.8351217e-01 8.3473074e-01 4.3036392e+01 
-3.2194808e-01 9.2160189e-01 4.3028820e+01 
2.5518833e-02 6.5462554e-01 4.3151749e+01 
-8.3235659e-02 7.6635528e-01 4.3082981e+01 
4.1474071e-01 3.5781288e-01 4.3581264e+01 
-1.8654740e-01 8.4590012e-01 4.3015797e+01 
-3.2522827e-02 5.5011308e-01 4.3120937e+01 
-1.7067213e-01 6.3479382e-01 4.3049488e+01 
-4.3632668e-01 9.6405542e-01 4.2965172e+01 
-2.7765438e-01 7.1817529e-01 4.2979721e+01 
2.6620242e-01 4.4011977e-01 4.3261948e+01 
1.3584816e-02 6.7044950e-01 4.3025066e+01 
-3.2081014e-01 9.2191011e-01 4.2901604e+01 
-3.8160574e-01 8.3169121e-01 4.2902863e+01 
-7.8566879e-02 7.6482886e-01 4.2940315e+01 
-5.0480481e-02 5.5910730e-01 4.2990566e+01 
4.2671782e-01 3.4949207e-01 4.3375019e+01 
1.6821145e-01 5.2049083e-01 4.3083881e+01 
-1.8336046e-01 8.4576881e-01 4.2871841e+01 
-4.3632606e-01 9.6405160e-01 4.2837555e+01 
-1.6731077e-01 6.3101834e-01 4.2902817e+01 
1.4768846e-01 4.5400122e-01 4.3051926e+01 
-2.7610970e-01 7.1575516e-01 4.2831745e+01 
-3.1966189e-01 9.2221189e-01 4.2773579e+01 
-3.8560396e-01 8.3684862e-01 4.2767078e+01 
3.7660085e-02 6.4738947e-01 4.2866421e+01 
-7.3788933e-02 7.6323271e-01 4.2794899e+01 
4.3868470e-01 3.4116083e-01 4.3168777e+01 
-4.3632543e-01 9.6404779e-01 4.2709122e+01 
-2.0968946e-02 5.3986710e-01 4.2827656e+01 
-1.8011902e-01 8.4562629e-01 4.2725094e+01 
-1.6385415e-01 6.2714905e-01 4.2753403e+01 
-2.7453732e-01 7.1328926e-01 4.2680973e+01 
-3.1850323e-01 9.2250693e-01 4.2644733e+01 
-3.9907700e-01 8.5570478e-01 4.2643101e+01 
2.5504474e-02 6.6361672e-01 4.2734810e+01 
1.8471870e-01 5.0880390e-01 4.2796177e+01 
-6.8898737e-02 7.6156229e-01 4.2646645e+01 
-3.9438177e-02 5.4903054e-01 4.2692345e+01 
-4.3632481e-01 9.6404403e-01 4.2579861e+01 
4.5063871e-01 3.3281663e-01 4.2962532e+01 
1.6565691e-01 4.4095638e-01 4.2756321e+01 
-1.7682223e-01 8.4547096e-01 4.2575459e+01 
-1.6029853e-01 6.2318206e-01 4.2601143e+01 
-4.0415615e-01 8.6278629e-01 4.2516582e+01 
-3.1733403e-01 9.2279470e-01 4.2515053e+01 
-2.7293649e-01 7.1077597e-01 4.2527313e+01 
5.0482783e-02 6.3954860e-01 4.2569923e+01 
-4.3632418e-01 9.6404034e-01 4.2449757e+01 
-6.3893095e-02 7.5981271e-01 4.2495445e+01 
-8.6617703e-03 5.2904755e-01 4.2523201e+01 
-1.7346917e-01 8.4530097e-01 4.2422829e+01 
-1.5663996e-01 6.1911333e-01 4.2445942e+01 
3.0435190e-01 4.1341871e-01 4.2643494e+01 
4.6257737e-01 3.2445681e-01 4.2756287e+01 
-3.1615424e-01 9.2307472e-01 4.2384518e+01 
-3.9902648e-01 8.5475212e-01 4.2382885e+01 
-2.7130640e-01 7.0821363e-01 4.2370659e+01 
3.8079392e-02 6.5619886e-01 4.2433029e+01 
2.0230262e-01 4.9620378e-01 4.2497147e+01 
-4.3632355e-01 9.6403670e-01 4.2318787e+01 
-5.8768708e-02 7.5797862e-01 4.2341198e+01 
-2.7680276e-02 5.3838593e-01 4.2382599e+01 
1.8486446e-01 4.2715022e-01 4.2449394e+01 
-3.8436696e-01 8.3356136e-01 4.2264896e+01 
8.9545198e-02 5.3233254e-01 4.2382050e+01 
-3.3225983e-01 9.3122375e-01 4.2255634e+01 
-1.7005907e-01 8.4511453e-01 4.2267101e+01 
-1.5287429e-01 6.1493850e-01 4.2287693e+01 
4.7449806e-01 3.1607881e-01 4.2550037e+01 
-2.6964626e-01 7.0560038e-01 4.2210907e+01 
-4.3632296e-01 9.6403313e-01 4.2186939e+01 
6.4036883e-02 6.3103610e-01 4.2261456e+01 
-5.3522192e-02 7.5605446e-01 4.2183796e+01 
-3.7873057e-01 8.2541841e-01 4.2124020e+01 
-3.1376252e-01 9.2360973e-01 4.2120819e+01 
4.4639236e-03 5.1760370e-01 4.2206776e+01 
-1.6659111e-01 8.4490943e-01 4.2108162e+01 
-1.4899719e-01 6.1065292e-01 4.2126286e+01 
-4.3632239e-01 9.6402961e-01 4.2054195e+01 
4.8639825e-01 3.0768004e-01 4.2343792e+01 
-2.6795524e-01 7.0293444e-01 4.2047943e+01 
2.4746621e-01 4.6040925e-01 4.2191032e+01 
7.1105182e-02 6.2650448e-01 4.2102463e+01 
-3.1255043e-01 9.2386365e-01 4.1987617e+01 
-4.8150036e-02 7.5403398e-01 4.2023121e+01 
-1.5144684e-02 5.2712250e-01 4.2060505e+01 
-3.7995064e-01 8.2661813e-01 4.1980038e+01 
2.0541981e-01 4.1251117e-01 4.2130333e+01 
-1.6306458e-01 8.4468329e-01 4.1945896e+01 
-4.3632182e-01 9.6402621e-01 4.1920536e+01 
-1.4500406e-01 6.0625184e-01 4.1961609e+01 
1.3375351e-01 5.6370503e-01 4.1969833e+01 
-2.6623246e-01 7.0021385e-01 4.1881653e+01 
-3.1132740e-01 9.2410773e-01 4.1853493e+01 
-3.9880505e-01 8.5261923e-01 4.1851868e+01 
4.9827534e-01 2.9925787e-01 4.2137547e+01 
3.4194937e-01 3.8685825e-01 4.2025021e+01 
-4.2648647e-02 7.5191063e-01 4.1859051e+01 
-2.5401810e-01 7.9503769e-01 4.1808533e+01 
1.8480448e-02 5.0547802e-01 4.1877510e+01 
-4.3632126e-01 9.6402287e-01 4.1785946e+01 
-1.5947884e-01 8.4443361e-01 4.1780174e+01 
-1.4089009e-01 6.0172999e-01 4.1793541e+01 
-3.1009343e-01 9.2434150e-01 4.1718426e+01 
-4.0306881e-01 8.5845691e-01 4.1716179e+01 
8.5861288e-02 6.1683756e-01 4.1774368e+01 
-2.6447710e-01 6.9743657e-01 4.1711910e+01 
3.0427080e-01 4.1638452e-01 4.1839512e+01 
2.6751360e-01 3.7833902e-01 4.1830902e+01 
5.1012677e-01 2.9080975e-01 4.1931297e+01 
-3.7014309e-02 7.4967718e-01 4.1691463e+01 
-4.3632072e-01 9.6401966e-01 4.1650398e+01 
2.5847588e-02 4.9913955e-01 4.1707767e+01 
-1.5583332e-01 8.4415752e-01 4.1610870e+01 
-3.8322043e-01 8.2981020e-01 4.1595791e+01 
-3.0884841e-01 9.2456430e-01 4.1582397e+01 
-1.3665022e-01 5.9708190e-01 4.1621960e+01 
9.3565010e-02 6.1167872e-01 4.1605015e+01 
-2.6268822e-01 6.9460052e-01 4.1538593e+01 
-4.3632022e-01 9.6401656e-01 4.1513885e+01 
-3.1243213e-02 7.4732590e-01 4.1520226e+01 
2.7603787e-01 3.7115356e-01 4.1624012e+01 
2.8505871e-01 4.3281260e-01 4.1611507e+01 
5.2195001e-01 2.8233302e-01 4.1725052e+01 
3.3468332e-02 4.9260557e-01 4.1534447e+01 
-3.9853087e-01 8.5081697e-01 4.1443768e+01 
-3.2560509e-01 9.3245691e-01 4.1443577e+01 
-1.5212752e-01 8.4385180e-01 4.1437847e+01 
-1.3227913e-01 5.9230179e-01 4.1446728e+01 
-4.3631971e-01 9.6401358e-01 4.1376381e+01 
[...]
POINT_DATA 6166
FIELD FieldData 5
DISPLACEMENT 3 6166  float
1.5117219e-03 1.5572212e-03 -1.5529695e-05 
1.5045539e-03 1.5483039e-03 -1.5535235e-05 
1.5152091e-03 1.5650309e-03 -1.8557093e-05 
1.5200854e-03 1.5606664e-03 -9.4100205e-06 
1.5040297e-03 1.5510180e-03 -1.8475150e-05 
1.5097418e-03 1.5477110e-03 -9.3411954e-06 
1.4973488e-03 1.5393387e-03 -1.5540923e-05 
1.5196921e-03 1.5724103e-03 -2.0119985e-05 
1.5270733e-03 1.5671419e-03 -7.4457935e-06 
1.5123921e-03 1.5635078e-03 -2.0282672e-05 
1.5196699e-03 1.5578473e-03 -7.3771798e-06 
1.4967808e-03 1.5420994e-03 -1.8569328e-05 
1.5015405e-03 1.5375898e-03 -9.4193492e-06 
1.5049697e-03 1.5544541e-03 -2.0447800e-05 
1.4901062e-03 1.5303271e-03 -1.5546755e-05 
1.5245551e-03 1.5789501e-03 -2.0533147e-05 
1.5121445e-03 1.5484013e-03 -7.3079150e-06 
1.5322446e-03 1.5737232e-03 -7.5580219e-06 
1.5133388e-03 1.5652619e-03 -2.0775418e-05 
1.5209233e-03 1.5594981e-03 -7.4425479e-06 
1.4894945e-03 1.5331329e-03 -1.8663359e-05 
1.4940468e-03 1.5283175e-03 -9.4697807e-06 
1.4974221e-03 1.5452454e-03 -2.0615003e-05 
1.5044939e-03 1.5387997e-03 -7.2382495e-06 
1.4828268e-03 1.5212682e-03 -1.5552510e-05 
1.5059207e-03 1.5562039e-03 -2.0932754e-05 
1.5308422e-03 1.5854649e-03 -1.9369105e-05 
1.5134045e-03 1.5500662e-03 -7.3767783e-06 
1.5371314e-03 1.5815293e-03 -9.0538406e-06 
1.4821715e-03 1.5241182e-03 -1.8757190e-05 
1.4862253e-03 1.5191520e-03 -9.9746530e-06 
1.4897453e-03 1.5358774e-03 -2.0784191e-05 
1.5164494e-03 1.5676935e-03 -1.9499299e-05 
1.4983771e-03 1.5469902e-03 -2.1092603e-05 
1.4967149e-03 1.5290381e-03 -7.1680970e-06 
1.5225132e-03 1.5633702e-03 -9.0837602e-06 
1.5260925e-03 1.5786939e-03 -1.8609029e-05 
1.5057612e-03 1.5404788e-03 -7.3111578e-06 
1.4755084e-03 1.5121639e-03 -1.5557594e-05 
1.5313119e-03 1.5754980e-03 -1.0107849e-05 
1.5086706e-03 1.5584830e-03 -1.9918638e-05 
1.5149339e-03 1.5535352e-03 -8.7334347e-06 
1.5379018e-03 1.5928696e-03 -1.8138615e-05 
1.5420858e-03 1.5905461e-03 -1.1534344e-05 
1.4748099e-03 1.5150567e-03 -1.8848954e-05 
1.4789035e-03 1.5100155e-03 -9.9543695e-06 
1.4819360e-03 1.5263450e-03 -2.0955536e-05 
1.4907048e-03 1.5376174e-03 -2.1253019e-05 
1.4888059e-03 1.5191130e-03 -7.0975480e-06 
1.4979889e-03 1.5307298e-03 -7.2443886e-06 
1.4681543e-03 1.5030080e-03 -1.5561256e-05 
1.5015820e-03 1.5494076e-03 -1.9700716e-05 
1.5073706e-03 1.5444503e-03 -9.0175517e-06 
1.5210964e-03 1.5720759e-03 -1.8251503e-05 
1.5338636e-03 1.5877502e-03 -1.8046767e-05 
1.5367827e-03 1.5862148e-03 -1.3511690e-05 
1.5247901e-03 1.5698232e-03 -1.2233991e-05 
1.4709968e-03 1.5005029e-03 -1.0248077e-05 
1.4674101e-03 1.5059464e-03 -1.8941832e-05 
1.4829009e-03 1.5280793e-03 -2.1415701e-05 
1.4935428e-03 1.5398872e-03 -2.0135611e-05 
1.4739921e-03 1.5166469e-03 -2.1129235e-05 
1.5450780e-03 1.6017044e-03 -1.8031620e-05 
1.5471500e-03 1.6007571e-03 -1.4937569e-05 
1.4900848e-03 1.5208194e-03 -7.1787799e-06 
1.4995408e-03 1.5342899e-03 -8.6560185e-06 
1.4807587e-03 1.5090194e-03 -7.0274659e-06 
1.4607573e-03 1.4938085e-03 -1.5566509e-05 
1.5063445e-03 1.5538580e-03 -1.8384868e-05 
1.4599684e-03 1.4967897e-03 -1.9033914e-05 
1.4641444e-03 1.4916018e-03 -9.9180434e-06 
1.4749614e-03 1.5183750e-03 -2.1578720e-05 
1.5096772e-03 1.5510943e-03 -1.2302977e-05 
1.4659079e-03 1.5067775e-03 -2.1303284e-05 
1.4862056e-03 1.5304802e-03 -1.9901365e-05 
1.4820466e-03 1.5107415e-03 -7.1142190e-06 
1.4725784e-03 1.4987552e-03 -6.9570633e-06 
1.4917136e-03 1.5248968e-03 -8.9598916e-06 
1.4533245e-03 1.4845567e-03 -1.5570846e-05 
1.5512428e-03 1.6126814e-03 -2.0905394e-05 
1.5394989e-03 1.5981774e-03 -2.1012358e-05 
1.4524902e-03 1.4875816e-03 -1.9128200e-05 
1.4567111e-03 1.4823239e-03 -9.8975752e-06 
1.4668863e-03 1.5084996e-03 -2.1741067e-05 
1.4783205e-03 1.5207679e-03 -1.9997700e-05 
1.4836207e-03 1.5143983e-03 -8.5875117e-06 
1.4576830e-03 1.4967327e-03 -2.1476144e-05 
1.4738716e-03 1.5004941e-03 -7.0515293e-06 
1.4458507e-03 1.4752622e-03 -1.5575084e-05 
1.5277499e-03 1.5836670e-03 -2.1120706e-05 
1.4875082e-03 1.5307007e-03 -1.8661191e-05 
1.4642552e-03 1.4883190e-03 -6.8860522e-06 
1.5030472e-03 1.5497757e-03 -1.8399805e-05 
1.5053090e-03 1.5487466e-03 -1.5005181e-05 
1.4940477e-03 1.5317359e-03 -1.2384407e-05 
1.4512854e-03 1.4747281e-03 -9.1493785e-06 
1.4449760e-03 1.4783272e-03 -1.9217066e-05 
1.4702969e-03 1.5108848e-03 -2.0097408e-05 
1.4586668e-03 1.4984497e-03 -2.1904274e-05 
1.5159965e-03 1.5691489e-03 -2.1227601e-05 
1.4493105e-03 1.4865072e-03 -2.1653745e-05 
1.4755157e-03 1.5046827e-03 -8.9079085e-06 
1.4655512e-03 1.4900690e-03 -6.9850580e-06 
1.4383401e-03 1.4659173e-03 -1.5576532e-05 
1.4557847e-03 1.4776989e-03 -6.8161125e-06 
1.4913421e-03 1.5353040e-03 -1.8503541e-05 
1.4616974e-03 1.5007000e-03 -2.0562436e-05 
1.4374206e-03 1.4690271e-03 -1.9303114e-05 
1.4435722e-03 1.4650183e-03 -9.0467420e-06 
1.4503009e-03 1.4882166e-03 -2.2068911e-05 
1.4671481e-03 1.4938280e-03 -8.5219981e-06 
1.5042184e-03 1.5545705e-03 -2.1324959e-05 
1.4753036e-03 1.5154819e-03 -1.8648159e-05 
1.4407877e-03 1.4760987e-03 -2.1832004e-05 
1.4307937e-03 1.4565253e-03 -1.5575954e-05 
1.4570873e-03 1.4794680e-03 -6.9230214e-06 
1.4778777e-03 1.5117306e-03 -1.2494351e-05 
1.4471625e-03 1.4668943e-03 -6.7452283e-06 
1.4298257e-03 1.4596782e-03 -1.9393625e-05 
1.4351842e-03 1.4547623e-03 -9.2031314e-06 
1.4538217e-03 1.4905853e-03 -2.0290516e-05 
1.4417855e-03 1.4778000e-03 -2.2231437e-05 
1.4924596e-03 1.5400312e-03 -2.1427222e-05 
1.4232059e-03 1.4470912e-03 -1.5578156e-05 
1.4587478e-03 1.4837720e-03 -8.8616644e-06 
1.4321122e-03 1.4654985e-03 -2.2007427e-05 
1.4484695e-03 1.4686775e-03 -6.8571708e-06 
1.4383891e-03 1.4559055e-03 -6.6749712e-06 
1.4221990e-03 1.4502850e-03 -1.9478026e-05 
1.4265889e-03 1.4447554e-03 -9.8122964e-06 
1.4449196e-03 1.4800391e-03 -2.0768051e-05 
1.4589577e-03 1.4952736e-03 -1.8777833e-05 
1.4331180e-03 1.4671915e-03 -2.2393111e-05 
1.4500903e-03 1.4725412e-03 -8.4621497e-06 
1.4155828e-03 1.4376185e-03 -1.5580585e-05 
1.4807079e-03 1.5255081e-03 -2.1537850e-05 
1.4611417e-03 1.4910407e-03 -1.2619527e-05 
1.4232781e-03 1.4547096e-03 -2.2184251e-05 
1.4397047e-03 1.4577101e-03 -6.7979395e-06 
1.4186435e-03 1.4351414e-03 -1.0046033e-05 
1.4145343e-03 1.4408559e-03 -1.9562984e-05 
1.4294650e-03 1.4447272e-03 -6.6055327e-06 
1.4367600e-03 1.4695447e-03 -2.0473764e-05 
1.4079259e-03 1.4280924e-03 -1.5579781e-05 
1.4243004e-03 1.4563977e-03 -2.2549217e-05 
1.4413883e-03 1.4621406e-03 -8.8298184e-06 
1.4142939e-03 1.4437293e-03 -2.2358166e-05 
1.4307887e-03 1.4465516e-03 -6.7368437e-06 
1.4562764e-03 1.4919944e-03 -1.8828869e-05 
1.4689697e-03 1.5109990e-03 -2.1647807e-05 
1.4068284e-03 1.4313696e-03 -1.9651763e-05 
1.4113055e-03 1.4257040e-03 -9.7717775e-06 
1.4203832e-03 1.4333604e-03 -6.5324339e-06 
1.4275445e-03 1.4586388e-03 -2.0962854e-05 
1.4420333e-03 1.4743422e-03 -1.8903582e-05 
1.4002259e-03 1.4185311e-03 -1.5581754e-05 
1.4153209e-03 1.4454104e-03 -2.2712444e-05 
1.4324343e-03 1.4505339e-03 -8.4192607e-06 
1.4438154e-03 1.4696511e-03 -1.2770476e-05 
1.4057808e-03 1.4180726e-03 -9.0931771e-06 
1.4328074e-03 1.4583293e-03 -1.4891667e-05 
1.3987188e-03 1.4208803e-03 -1.9288507e-05 
1.4051368e-03 1.4325451e-03 -2.2530658e-05 
1.4217116e-03 1.4352057e-03 -6.6810771e-06 
1.4572453e-03 1.4964931e-03 -2.1730295e-05 
1.4111369e-03 1.4217958e-03 -6.4660044e-06 
1.3925002e-03 1.4089302e-03 -1.5580948e-05 
1.4190832e-03 1.4477473e-03 -2.0645659e-05 
1.4061813e-03 1.4342231e-03 -2.2867258e-05 
1.3980478e-03 1.4081853e-03 -8.8373672e-06 
1.3913248e-03 1.4122833e-03 -1.9812076e-05 
1.4234082e-03 1.4397664e-03 -8.8120469e-06 
1.3958184e-03 1.4211604e-03 -2.2706254e-05 
1.4124693e-03 1.4236544e-03 -6.6188186e-06 
1.3847305e-03 1.3992798e-03 -1.5575213e-05 
1.4455330e-03 1.4820214e-03 -2.1832650e-05 
1.4017291e-03 1.4100302e-03 -6.4016808e-06 
1.4262830e-03 1.4548091e-03 -1.8952787e-05 
1.4100147e-03 1.4365601e-03 -2.0731381e-05 
1.3835129e-03 1.4026790e-03 -1.9884534e-05 
1.3968740e-03 1.4228307e-03 -2.3019727e-05 
1.4141416e-03 1.4277584e-03 -8.3911709e-06 
1.3895240e-03 1.3976408e-03 -8.8661363e-06 
1.4258811e-03 1.4475398e-03 -1.2945660e-05 
1.3863319e-03 1.4095734e-03 -2.2880238e-05 
1.3769276e-03 1.3895881e-03 -1.5564210e-05 
1.4030673e-03 1.4119163e-03 -6.5663162e-06 
1.4063716e-03 1.4310156e-03 -1.9821906e-05 
1.3921517e-03 1.3980629e-03 -6.3370321e-06 
1.3756686e-03 1.3930384e-03 -1.9958365e-05 
1.3803151e-03 1.3871212e-03 -9.6812701e-06 
1.4338654e-03 1.4676068e-03 -2.1938326e-05 
1.4213552e-03 1.4488848e-03 -1.9137366e-05 
1.3874049e-03 1.4112379e-03 -2.3167560e-05 
1.3815954e-03 1.3935752e-03 -1.3939714e-05 
1.4047903e-03 1.4166276e-03 -8.8131546e-06 
1.3690987e-03 1.3798783e-03 -1.5559472e-05 
1.3766789e-03 1.3977842e-03 -2.3035112e-05 
1.3935056e-03 1.3999875e-03 -6.5287736e-06 
1.3678009e-03 1.3833623e-03 -2.0029940e-05 
1.3720249e-03 1.3770567e-03 -9.8738692e-06 
1.3913776e-03 1.4135728e-03 -2.0867608e-05 
1.3824103e-03 1.3859109e-03 -6.2808067e-06 
1.4084448e-03 1.4327788e-03 -1.9097935e-05 
1.4104549e-03 1.4297137e-03 -1.4149246e-05 
1.4222001e-03 1.4531898e-03 -2.2015191e-05 
1.3777782e-03 1.3994540e-03 -2.3304730e-05 
1.3612354e-03 1.3701404e-03 -1.5557109e-05 
1.3952405e-03 1.4047821e-03 -8.8200131e-06 
1.3668605e-03 1.3857912e-03 -2.3192886e-05 
1.3669244e-03 1.3697234e-03 -8.9765790e-06 
1.3599135e-03 1.3736625e-03 -2.0090143e-05 
1.3837742e-03 1.3878534e-03 -6.4732567e-06 
1.3818281e-03 1.4017937e-03 -2.0938696e-05 
1.3725085e-03 1.3735527e-03 -6.2175072e-06 
1.3533584e-03 1.3603626e-03 -1.5555543e-05 
1.3679765e-03 1.3874586e-03 -2.3440580e-05 
1.3987597e-03 1.4151921e-03 -1.4147398e-05 
1.3939639e-03 1.4148732e-03 -1.9169609e-05 
1.4105599e-03 1.4388064e-03 -2.2105027e-05 
1.3855335e-03 1.3927408e-03 -8.8406032e-06 
1.3567603e-03 1.3578347e-03 -9.6212289e-06 
1.3513864e-03 1.3626181e-03 -1.9668496e-05 
1.3568653e-03 1.3735995e-03 -2.3350314e-05 
1.3738854e-03 1.3755407e-03 -6.4321498e-06 
1.3454418e-03 1.3505557e-03 -1.5539183e-05 
1.3755348e-03 1.3934285e-03 -2.0441918e-05 
1.3624391e-03 1.3610077e-03 -6.1647866e-06 
1.3580130e-03 1.3752680e-03 -2.3570956e-05 
1.3440414e-03 1.3541697e-03 -2.0226180e-05 
1.3488411e-03 1.3480098e-03 -9.5931764e-06 
1.3756604e-03 1.3805125e-03 -8.8620791e-06 
1.3880663e-03 1.4022710e-03 -1.4464579e-05 
1.3989793e-03 1.4245008e-03 -2.2175451e-05 
1.3467025e-03 1.3611953e-03 -2.3505336e-05 
1.3833623e-03 1.4018163e-03 -1.9252731e-05 
1.3374927e-03 1.3407130e-03 -1.5515181e-05 
1.3638301e-03 1.3630271e-03 -6.3943066e-06 
1.3664688e-03 1.3819707e-03 -2.0241998e-05 
1.3360515e-03 1.3443764e-03 -2.0282163e-05 
1.3408943e-03 1.3381648e-03 -9.5646401e-06 
1.3521968e-03 1.3482505e-03 -6.1123010e-06 
1.3478778e-03 1.3628695e-03 -2.3698261e-05 
1.3656248e-03 1.3680951e-03 -8.8878196e-06 
1.3295140e-03 1.3308482e-03 -1.5504251e-05 
1.3766192e-03 1.3877592e-03 -1.4195979e-05 
1.3874614e-03 1.4102795e-03 -2.2223861e-05 
1.3363595e-03 1.3485850e-03 -2.3652829e-05 
1.3536023e-03 1.3503140e-03 -6.3598523e-06 
1.3726444e-03 1.3886120e-03 -1.9336445e-05 
1.3280399e-03 1.3345453e-03 -2.0336234e-05 
1.3329255e-03 1.3282875e-03 -9.5471441e-06 
1.3560533e-03 1.3690986e-03 -2.0270769e-05 
1.3417767e-03 1.3352922e-03 -6.0580587e-06 
1.3215070e-03 1.3209565e-03 -1.5501049e-05 
1.3375622e-03 1.3502641e-03 -2.3819572e-05 
1.3554136e-03 1.3554767e-03 -8.9240602e-06 
1.3200117e-03 1.3247030e-03 -2.0388934e-05 
1.3249356e-03 1.3183702e-03 -9.5182213e-06 
1.3258298e-03 1.3357606e-03 -2.3800239e-05 
1.3760224e-03 1.3961412e-03 -2.2266202e-05 
1.3431988e-03 1.3374012e-03 -6.3287280e-06 
1.3632430e-03 1.3708774e-03 -1.3926730e-05 
1.3620903e-03 1.3756368e-03 -1.9426738e-05 
1.3134860e-03 1.3110294e-03 -1.5477463e-05 
1.3453631e-03 1.3559300e-03 -2.0314637e-05 
1.3311764e-03 1.3221274e-03 -6.0158654e-06 
1.3270713e-03 1.3374466e-03 -2.3933651e-05 
1.3476479e-03 1.3465080e-03 -9.4828865e-06 
1.3119498e-03 1.3148278e-03 -2.0445113e-05 
1.3169257e-03 1.3084655e-03 -9.5134101e-06 
1.3151162e-03 1.3227105e-03 -2.3938728e-05 
1.3646199e-03 1.3820804e-03 -2.2337694e-05 
1.3054290e-03 1.3011197e-03 -1.5478628e-05 
1.3326282e-03 1.3242825e-03 -6.3004395e-06 
1.3508385e-03 1.3617590e-03 -1.9481107e-05 
1.3518004e-03 1.3575464e-03 -1.4682779e-05 
1.3339357e-03 1.3420283e-03 -2.0505644e-05 
1.3038693e-03 1.3049499e-03 -2.0503519e-05 
1.3088778e-03 1.2985272e-03 -9.4917568e-06 
1.3204112e-03 1.3087608e-03 -5.9647386e-06 
1.3164056e-03 1.3244158e-03 -2.4035504e-05 
1.3377550e-03 1.3347213e-03 -9.8893488e-06 
1.2973456e-03 1.2911488e-03 -1.5475369e-05 
1.3042435e-03 1.3094677e-03 -2.4060637e-05 
1.3074533e-03 1.3020809e-03 -1.4118905e-05 
1.3533001e-03 1.3681394e-03 -2.2415034e-05 
1.3218845e-03 1.3109669e-03 -6.2782019e-06 
1.3390619e-03 1.3472297e-03 -1.9504172e-05 
1.2957730e-03 1.2950313e-03 -2.0534126e-05 
1.3008047e-03 1.2885350e-03 -9.4685065e-06 
1.3223576e-03 1.3280035e-03 -2.0730076e-05 
1.3410160e-03 1.3446140e-03 -1.5044035e-05 
1.3094542e-03 1.2951809e-03 -5.9254935e-06 
1.2892541e-03 1.2811510e-03 -1.5443480e-05 
1.3055659e-03 1.3111815e-03 -2.4131698e-05 
1.3269493e-03 1.3214638e-03 -9.9806512e-06 
1.2876340e-03 1.2850846e-03 -2.0589940e-05 
1.2927295e-03 1.2785585e-03 -9.4498491e-06 
1.2931476e-03 1.2959859e-03 -2.4178715e-05 
1.3420567e-03 1.3542981e-03 -2.2484439e-05 
1.3109669e-03 1.2974556e-03 -6.2603631e-06 
1.3279696e-03 1.3335964e-03 -1.9551901e-05 
1.2811162e-03 1.2711626e-03 -1.5434018e-05 
1.3111210e-03 1.3143100e-03 -2.0858604e-05 
1.3306401e-03 1.3323314e-03 -1.5519028e-05 
1.2897372e-03 1.2836152e-03 -1.7027596e-05 
1.2983206e-03 1.2813993e-03 -5.8685287e-06 
1.2945337e-03 1.2977284e-03 -2.4214534e-05 
1.2794833e-03 1.2751347e-03 -2.0629292e-05 
1.3161167e-03 1.3083923e-03 -1.0233667e-05 
1.2853241e-03 1.2685644e-03 -8.6646633e-06 
1.2818801e-03 1.2822830e-03 -2.4303370e-05 
1.2729669e-03 1.2611293e-03 -1.5411075e-05 
1.3308931e-03 1.3405776e-03 -2.2551938e-05 
1.3011495e-03 1.2857234e-03 -6.5665868e-06 
1.3160427e-03 1.3189166e-03 -1.9589870e-05 
1.2992352e-03 1.3000976e-03 -2.1245927e-05 
1.3212102e-03 1.3217077e-03 -1.6427864e-05 
1.2713071e-03 1.2651298e-03 -2.0638739e-05 
1.2764494e-03 1.2585256e-03 -9.4165616e-06 
1.2869808e-03 1.2673802e-03 -5.8228902e-06 
1.2832865e-03 1.2840168e-03 -2.4303834e-05 
1.2648471e-03 1.2511504e-03 -1.5397787e-05 
1.3029649e-03 1.2923328e-03 -1.0377789e-05 
1.2705007e-03 1.2684574e-03 -2.4417202e-05 
1.3198245e-03 1.3269706e-03 -2.2575377e-05 
1.2631599e-03 1.2551197e-03 -2.0639354e-05 
1.2683007e-03 1.2485350e-03 -9.4363922e-06 
1.2885218e-03 1.2696818e-03 -6.1397732e-06 
1.3102085e-03 1.3082147e-03 -1.6486803e-05 
1.3028176e-03 1.3027017e-03 -1.9660663e-05 
1.2862213e-03 1.2841513e-03 -2.1274620e-05 
1.2567885e-03 1.2412759e-03 -1.5388034e-05 
1.2757413e-03 1.2535056e-03 -5.7561829e-06 
1.2718536e-03 1.2701686e-03 -2.4462435e-05 
1.2899494e-03 1.2746080e-03 -8.8876295e-06 
1.2551070e-03 1.2452394e-03 -2.0612484e-05 
1.2616666e-03 1.2394573e-03 -8.6082564e-06 
1.2593457e-03 1.2549165e-03 -2.4523277e-05 
1.3088203e-03 1.3134481e-03 -2.2605924e-05 
1.2772587e-03 1.2557528e-03 -6.0573279e-06 
1.2488290e-03 1.2314972e-03 -1.5361324e-05 
1.2759672e-03 1.2719098e-03 -2.1574764e-05 
1.2952832e-03 1.2872817e-03 -1.4242366e-05 
1.2972261e-03 1.2961763e-03 -1.9960640e-05 
1.2839331e-03 1.2796987e-03 -1.9847370e-05 
1.2646990e-03 1.2399028e-03 -5.7161046e-06 
1.2471178e-03 1.2354504e-03 -2.0594955e-05 
1.2522353e-03 1.2288935e-03 -9.4679181e-06 
1.2606594e-03 1.2566006e-03 -2.4598523e-05 
1.2786912e-03 1.2605648e-03 -8.7004983e-06 
1.2409305e-03 1.2218532e-03 -1.5345586e-05 
1.2484216e-03 1.2416553e-03 -2.4610545e-05 
1.2978802e-03 1.3000628e-03 -2.2677161e-05 
1.2662086e-03 1.2421028e-03 -5.9830932e-06 
1.2477217e-03 1.2221478e-03 -8.3799596e-06 
1.2392272e-03 1.2257841e-03 -2.0558471e-05 
1.2646852e-03 1.2582878e-03 -2.1775117e-05 
1.2863511e-03 1.2828427e-03 -2.0007441e-05 
1.2883611e-03 1.2814607e-03 -1.6610673e-05 
1.2538645e-03 1.2265713e-03 -5.6741733e-06 
1.2789073e-03 1.2652231e-03 -1.2547445e-05 
1.2496941e-03 1.2433263e-03 -2.4718220e-05 
1.2331314e-03 1.2122828e-03 -1.5323061e-05 
1.2716493e-03 1.2646132e-03 -1.9861722e-05 
1.2676419e-03 1.2468114e-03 -8.5347310e-06 
1.2313909e-03 1.2161934e-03 -2.0544512e-05 
1.2377165e-03 1.2286879e-03 -2.4689489e-05 
1.2869275e-03 1.2866193e-03 -2.2706194e-05 
1.2553709e-03 1.2287393e-03 -5.9151935e-06 
1.2381603e-03 1.2102056e-03 -8.1577218e-06 
1.2536460e-03 1.2449950e-03 -2.1956883e-05 
1.2253717e-03 1.2028200e-03 -1.5306034e-05 
1.2754624e-03 1.2695100e-03 -2.0054680e-05 
1.2774590e-03 1.2681297e-03 -1.6667118e-05 
1.2432404e-03 1.2135314e-03 -5.6222470e-06 
1.2389489e-03 1.2303428e-03 -2.4834317e-05 
1.2236477e-03 1.2067254e-03 -2.0489240e-05 
1.2287284e-03 1.2002251e-03 -9.5153682e-06 
1.2653366e-03 1.2478823e-03 -1.1958856e-05 
1.2609340e-03 1.2514653e-03 -1.9859854e-05 
1.2568184e-03 1.2333621e-03 -8.3684590e-06 
1.2361828e-03 1.2123690e-03 -1.2107866e-05 
1.2272269e-03 1.2160017e-03 -2.4751655e-05 
1.2177182e-03 1.1934908e-03 -1.5281243e-05 
1.2760297e-03 1.2732459e-03 -2.2733599e-05 
1.2319199e-03 1.2009665e-03 -6.7563724e-06 
1.2447417e-03 1.2156605e-03 -5.8465439e-06 
1.2428291e-03 1.2319750e-03 -2.2135788e-05 
1.2646762e-03 1.2563104e-03 -2.0090152e-05 
1.2666561e-03 1.2549316e-03 -1.6727316e-05 
1.2160013e-03 1.1973882e-03 -2.0429936e-05 
1.2210394e-03 1.1908876e-03 -9.5359865e-06 
1.2249133e-03 1.2027428e-03 -1.5688518e-05 
1.2328018e-03 1.2007516e-03 -5.6097642e-06 
1.2311117e-03 1.2105770e-03 -1.5922220e-05 
1.2284451e-03 1.2176351e-03 -2.4926219e-05 
1.2546501e-03 1.2348924e-03 -1.2034782e-05 
1.2502995e-03 1.2384444e-03 -1.9841496e-05 
1.2461940e-03 1.2202027e-03 -8.2165070e-06 
1.2101715e-03 1.1842619e-03 -1.5242292e-05 
1.2242518e-03 1.1916584e-03 -6.8001732e-06 
1.2169832e-03 1.2035709e-03 -2.4786939e-05 
1.2131719e-03 1.1819863e-03 -1.0129778e-05 
1.2342802e-03 1.2028175e-03 -5.7772381e-06 
1.2652291e-03 1.2600189e-03 -2.2756962e-05 
1.2229722e-03 1.1963969e-03 -1.2234211e-05 
1.2084394e-03 1.1881404e-03 -2.0388521e-05 
1.2322632e-03 1.2192720e-03 -2.2304794e-05 
1.2539778e-03 1.2432566e-03 -2.0123853e-05 
1.2559429e-03 1.2418798e-03 -1.6785916e-05 
1.2026848e-03 1.1751705e-03 -1.5225265e-05 
1.2225677e-03 1.1882453e-03 -5.5816222e-06 
1.2181319e-03 1.2051794e-03 -2.5001556e-05 
1.2357733e-03 1.2072931e-03 -8.0547816e-06 
1.2440271e-03 1.2219973e-03 -1.2134793e-05 
1.2397383e-03 1.2255479e-03 -1.9836018e-05 
1.2009578e-03 1.1790141e-03 -2.0350317e-05 
1.2139301e-03 1.1861766e-03 -1.2894043e-05 
1.2059438e-03 1.1725825e-03 -9.5798950e-06 
1.2069133e-03 1.1914113e-03 -2.4834748e-05 
1.2240509e-03 1.1902800e-03 -5.7216162e-06 
1.2545321e-03 1.2469356e-03 -2.2765422e-05 
1.2218823e-03 1.2067980e-03 -2.2450648e-05 
1.1952824e-03 1.1661566e-03 -1.5186331e-05 
1.2091715e-03 1.1733667e-03 -6.8434551e-06 
1.2105801e-03 1.1862563e-03 -1.6505466e-05 
1.2080598e-03 1.1930093e-03 -2.5063186e-05 
1.2125347e-03 1.1759935e-03 -5.5474761e-06 
1.2433772e-03 1.2303218e-03 -2.0144651e-05 
1.2453292e-03 1.2289463e-03 -1.6824848e-05 
1.2056079e-03 1.1762864e-03 -1.3091140e-05 
1.1992154e-03 1.1733373e-03 -1.7254466e-05 
1.1935394e-03 1.1699778e-03 -2.0292351e-05 
1.1985134e-03 1.1635881e-03 -9.5841833e-06 
1.2255359e-03 1.1946443e-03 -7.9220372e-06 
1.2334837e-03 1.2092155e-03 -1.2188030e-05 
1.2292472e-03 1.2127379e-03 -1.9825990e-05 
1.1970754e-03 1.1795054e-03 -2.4864792e-05 
1.1879447e-03 1.1572576e-03 -1.5155569e-05 
1.2017390e-03 1.1643828e-03 -6.8683448e-06 
1.2139956e-03 1.1780052e-03 -5.6926333e-06 
1.2117135e-03 1.1946046e-03 -2.2602106e-05 
1.2439182e-03 1.2339532e-03 -2.2768014e-05 
1.1861963e-03 1.1610490e-03 -2.0235540e-05 
1.1911584e-03 1.1546977e-03 -9.5921978e-06 
1.1947429e-03 1.1664571e-03 -1.5987773e-05 
1.1981700e-03 1.1810965e-03 -2.5107975e-05 
1.2026600e-03 1.1639788e-03 -5.5006903e-06 
1.2328374e-03 1.2174686e-03 -2.0161408e-05 
1.2347772e-03 1.2160970e-03 -1.6860855e-05 
1.1806729e-03 1.1484597e-03 -1.5138819e-05 