# vtk DataFile Version 4.0
vtk output
ASCII
DATASET UNSTRUCTURED_GRID
POINTS 6166 float
-4.3633327e-01 9.6409470e-01 4.4200001e+01 
-4.3633261e-01 9.6409082e-01 4.4079685e+01 
-3.2145375e-01 9.1276109e-01 4.4200001e+01 
-3.8566181e-01 8.4097892e-01 4.4200001e+01 
-3.3069235e-01 9.1895354e-01 4.4019413e+01 
-3.8473952e-01 8.3919770e-01 4.4024357e+01 
-4.3633196e-01 9.6408689e-01 4.3958702e+01 
-2.1293370e-01 8.4677851e-01 4.4200001e+01 
-2.9042658e-01 7.3813015e-01 4.4200001e+01 
-2.1019450e-01 8.4669626e-01 4.4077393e+01 
-2.8909999e-01 7.3605996e-01 4.4073399e+01 
-3.2963324e-01 9.1929907e-01 4.3898094e+01 
-3.8679782e-01 8.4179753e-01 4.3889645e+01 
-2.0740938e-01 8.4661204e-01 4.3952713e+01 
-4.3633130e-01 9.6408290e-01 4.3837040e+01 
-1.1677200e-01 7.7521002e-01 4.4200001e+01 
-2.8775173e-01 7.3395580e-01 4.3944717e+01 
-1.9365783e-01 6.6203654e-01 4.4200001e+01 
-1.1309985e-01 7.7540898e-01 4.4012005e+01 
-1.9181472e-01 6.5888047e-01 4.4006447e+01 
-3.2856464e-01 9.1964108e-01 4.3776085e+01 
-3.8823184e-01 8.4352189e-01 4.3765770e+01 
-2.0457739e-01 8.4652513e-01 4.3825886e+01 
-2.8638119e-01 7.3181647e-01 4.3813885e+01 
-4.3633065e-01 9.6407896e-01 4.3714680e+01 
-1.0911675e-01 7.7426714e-01 4.3886200e+01 
-2.1001574e-02 6.8269837e-01 4.4200001e+01 
-1.8902887e-01 6.5566909e-01 4.3876659e+01 
-7.8887597e-02 5.9015810e-01 4.4200001e+01 
-3.2748649e-01 9.1997939e-01 4.3653378e+01 
-3.9889076e-01 8.5876143e-01 4.3651733e+01 
-2.0169757e-01 8.4643483e-01 4.3696846e+01 
-7.2496021e-03 6.7325598e-01 4.3947758e+01 
-1.0504345e-01 7.7307969e-01 4.3758209e+01 
-2.8498772e-01 7.2964084e-01 4.3680840e+01 
-6.3224643e-02 5.7783771e-01 4.3940754e+01 
3.5808440e-02 6.2679136e-01 4.4056572e+01 
-1.8616955e-01 6.5238589e-01 4.3744686e+01 
-4.3632996e-01 9.6407503e-01 4.3591618e+01 
-9.8678423e-03 5.4892725e-01 4.4055367e+01 
-1.8652271e-02 6.8798620e-01 4.3834026e+01 
-7.9845116e-02 5.8636194e-01 4.3823372e+01 
8.7777540e-02 5.7885915e-01 4.4200001e+01 
5.3622175e-02 5.1732427e-01 4.4200001e+01 
-3.2639861e-01 9.2031354e-01 4.3529953e+01 
-3.9894739e-01 8.5844576e-01 4.3528313e+01 
-1.9876897e-01 8.4634024e-01 4.3565521e+01 
-1.0087753e-01 7.7184403e-01 4.3627972e+01 
-2.8357074e-01 7.2742778e-01 4.3545506e+01 
-1.8323407e-01 6.4902818e-01 4.3610458e+01 
-4.3632931e-01 9.6407109e-01 4.3467831e+01 
3.1033519e-03 6.6751039e-01 4.3691772e+01 
-5.3600248e-02 5.6906003e-01 4.3676846e+01 
1.2436585e-01 5.5082864e-01 4.3886215e+01 
1.7079005e-01 5.1095647e-01 4.4054855e+01 
1.4951277e-01 4.6697062e-01 4.4053665e+01 
1.0028158e-01 4.8915190e-01 4.3877911e+01 
-4.0513036e-01 8.6722642e-01 4.3405304e+01 
-3.2530096e-01 9.2064321e-01 4.3405800e+01 
-9.6616447e-02 7.7055699e-01 4.3495411e+01 
-8.4563000e-03 6.8258613e-01 4.3574005e+01 
-1.9579062e-01 8.4624058e-01 4.3431831e+01 
2.1753120e-01 4.7335833e-01 4.4200001e+01 
2.0360756e-01 4.4289169e-01 4.4200001e+01 
-1.8021962e-01 6.4559317e-01 4.3473904e+01 
-7.0636064e-02 5.7773441e-01 4.3555408e+01 
-2.8212959e-01 7.2517604e-01 4.3407806e+01 
-4.3632865e-01 9.6406716e-01 4.3343307e+01 
1.3810426e-01 5.4143524e-01 4.3628246e+01 
-3.2419339e-01 9.2096806e-01 4.3280907e+01 
-3.9903235e-01 8.5775709e-01 4.3279266e+01 
-9.2257597e-02 7.6921552e-01 4.3360443e+01 
1.1508528e-01 4.7804743e-01 4.3612068e+01 
-1.9276154e-01 8.4613472e-01 4.3295704e+01 
1.4013666e-02 6.6131532e-01 4.3426643e+01 
-1.7712323e-01 6.4207786e-01 4.3334946e+01 
-2.8066361e-01 7.2288430e-01 4.3267666e+01 
-4.3382257e-02 5.5983055e-01 4.3403778e+01 
-4.3632799e-01 9.6406323e-01 4.3218033e+01 
3.7877345e-01 3.8273901e-01 4.4200001e+01 
3.9076596e-01 3.7443376e-01 4.3993755e+01 
-3.2307580e-01 9.2128778e-01 4.3155251e+01 
-3.9906058e-01 8.5738426e-01 4.3153610e+01 
-8.7798268e-02 7.6781619e-01 4.3222996e+01 
1.9689407e-02 6.5803534e-01 4.3290459e+01 
-6.0862999e-02 5.6866169e-01 4.3278019e+01 
-1.8968078e-01 8.4602165e-01 4.3157055e+01 
-1.7394182e-01 6.3847917e-01 4.3193501e+01 
-4.3632734e-01 9.6405929e-01 4.3091995e+01 
4.0275589e-01 3.6612594e-01 4.3787510e+01 
1.2304078e-01 5.5709994e-01 4.3330139e+01 
-2.7917209e-01 7.2055119e-01 4.3125000e+01 
2.5336364e-01 4.4907436e-01 4.3468094e+01 
2.3670304e-01 4.1684708e-01 4.3469433e+01 
1.3086085e-01 4.6634668e-01 4.3336948e+01 
-3.8351217e-01 8.3473074e-01 4.3036392e+01 
-3.2194808e-01 9.2160189e-01 4.3028820e+01 
2.5518833e-02 6.5462554e-01 4.3151749e+01 
-8.3235659e-02 7.6635528e-01 4.3082981e+01 
4.1474071e-01 3.5781288e-01 4.3581264e+01 
-1.8654740e-01 8.4590012e-01 4.3015797e+01 
-3.2522827e-02 5.5011308e-01 4.3120937e+01 
-1.7067213e-01 6.3479382e-01 4.3049488e+01 
-4.3632668e-01 9.6405542e-01 4.2965172e+01 
-2.7765438e-01 7.1817529e-01 4.2979721e+01 
2.6620242e-01 4.4011977e-01 4.3261948e+01 
1.3584816e-02 6.7044950e-01 4.3025066e+01 
-3.2081014e-01 9.2191011e-01 4.2901604e+01 
-3.8160574e-01 8.3169121e-01 4.2902863e+01 
-7.8566879e-02 7.6482886e-01 4.2940315e+01 
-5.0480481e-02 5.5910730e-01 4.2990566e+01 
4.2671782e-01 3.4949207e-01 4.3375019e+01 
1.6821145e-01 5.2049083e-01 4.3083881e+01 
-1.8336046e-01 8.4576881e-01 4.2871841e+01 
-4.3632606e-01 9.6405160e-01 4.2837555e+01 
-1.6731077e-01 6.3101834e-01 4.2902817e+01 
1.4768846e-01 4.5400122e-01 4.3051926e+01 
-2.7610970e-01 7.1575516e-01 4.2831745e+01 
-3.1966189e-01 9.2221189e-01 4.2773579e+01 
-3.8560396e-01 8.3684862e-01 4.2767078e+01 
3.7660085e-02 6.4738947e-01 4.2866421e+01 
-7.3788933e-02 7.6323271e-01 4.2794899e+01 
4.3868470e-01 3.4116083e-01 4.3168777e+01 
-4.3632543e-01 9.6404779e-01 4.2709122e+01 
-2.0968946e-02 5.3986710e-01 4.2827656e+01 
-1.8011902e-01 8.4562629e-01 4.2725094e+01 
-1.6385415e-01 6.2714905e-01 4.2753403e+01 
-2.7453732e-01 7.1328926e-01 4.2680973e+01 
-3.1850323e-01 9.2250693e-01 4.2644733e+01 
-3.9907700e-01 8.5570478e-01 4.2643101e+01 
2.5504474e-02 6.6361672e-01 4.2734810e+01 
1.8471870e-01 5.0880390e-01 4.2796177e+01 
-6.8898737e-02 7.6156229e-01 4.2646645e+01 
-3.9438177e-02 5.4903054e-01 4.2692345e+01 
-4.3632481e-01 9.6404403e-01 4.2579861e+01 
4.5063871e-01 3.3281663e-01 4.2962532e+01 
1.6565691e-01 4.4095638e-01 4.2756321e+01 
-1.7682223e-01 8.4547096e-01 4.2575459e+01 
-1.6029853e-01 6.2318206e-01 4.2601143e+01 
-4.0415615e-01 8.6278629e-01 4.2516582e+01 
-3.1733403e-01 9.2279470e-01 4.2515053e+01 
-2.7293649e-01 7.1077597e-01 4.2527313e+01 
5.0482783e-02 6.3954860e-01 4.2569923e+01 
-4.3632418e-01 9.6404034e-01 4.2449757e+01 
-6.3893095e-02 7.5981271e-01 4.2495445e+01 
-8.6617703e-03 5.2904755e-01 4.2523201e+01 
-1.7346917e-01 8.4530097e-01 4.2422829e+01 
-1.5663996e-01 6.1911333e-01 4.2445942e+01 
3.0435190e-01 4.1341871e-01 4.2643494e+01 
4.6257737e-01 3.2445681e-01 4.2756287e+01 
-3.1615424e-01 9.2307472e-01 4.2384518e+01 
-3.9902648e-01 8.5475212e-01 4.2382885e+01 
-2.7130640e-01 7.0821363e-01 4.2370659e+01 
3.8079392e-02 6.5619886e-01 4.2433029e+01 
2.0230262e-01 4.9620378e-01 4.2497147e+01 
-4.3632355e-01 9.6403670e-01 4.2318787e+01 
-5.8768708e-02 7.5797862e-01 4.2341198e+01 
-2.7680276e-02 5.3838593e-01 4.2382599e+01 
1.8486446e-01 4.2715022e-01 4.2449394e+01 
-3.8436696e-01 8.3356136e-01 4.2264896e+01 
8.9545198e-02 5.3233254e-01 4.2382050e+01 
-3.3225983e-01 9.3122375e-01 4.2255634e+01 
-1.7005907e-01 8.4511453e-01 4.2267101e+01 
-1.5287429e-01 6.1493850e-01 4.2287693e+01 
4.7449806e-01 3.1607881e-01 4.2550037e+01 
-2.6964626e-01 7.0560038e-01 4.2210907e+01 
-4.3632296e-01 9.6403313e-01 4.2186939e+01 
6.4036883e-02 6.3103610e-01 4.2261456e+01 
-5.3522192e-02 7.5605446e-01 4.2183796e+01 
-3.7873057e-01 8.2541841e-01 4.2124020e+01 
-3.1376252e-01 9.2360973e-01 4.2120819e+01 
4.4639236e-03 5.1760370e-01 4.2206776e+01 
-1.6659111e-01 8.4490943e-01 4.2108162e+01 
-1.4899719e-01 6.1065292e-01 4.2126286e+01 
-4.3632239e-01 9.6402961e-01 4.2054195e+01 
4.8639825e-01 3.0768004e-01 4.2343792e+01 
-2.6795524e-01 7.0293444e-01 4.2047943e+01 
2.4746621e-01 4.6040925e-01 4.2191032e+01 
7.1105182e-02 6.2650448e-01 4.2102463e+01 
-3.1255043e-01 9.2386365e-01 4.1987617e+01 
-4.8150036e-02 7.5403398e-01 4.2023121e+01 
-1.5144684e-02 5.2712250e-01 4.2060505e+01 
-3.7995064e-01 8.2661813e-01 4.1980038e+01 
2.0541981e-01 4.1251117e-01 4.2130333e+01 
-1.6306458e-01 8.4468329e-01 4.1945896e+01 
-4.3632182e-01 9.6402621e-01 4.1920536e+01 
-1.4500406e-01 6.0625184e-01 4.1961609e+01 
1.3375351e-01 5.6370503e-01 4.1969833e+01 
-2.6623246e-01 7.0021385e-01 4.1881653e+01 
-3.1132740e-01 9.2410773e-01 4.1853493e+01 
-3.9880505e-01 8.5261923e-01 4.1851868e+01 
4.9827534e-01 2.9925787e-01 4.2137547e+01 
3.4194937e-01 3.8685825e-01 4.2025021e+01 
-4.2648647e-02 7.5191063e-01 4.1859051e+01 
-2.5401810e-01 7.9503769e-01 4.1808533e+01 
1.8480448e-02 5.0547802e-01 4.1877510e+01 
-4.3632126e-01 9.6402287e-01 4.1785946e+01 
-1.5947884e-01 8.4443361e-01 4.1780174e+01 
-1.4089009e-01 6.0172999e-01 4.1793541e+01 
-3.1009343e-01 9.2434150e-01 4.1718426e+01 
-4.0306881e-01 8.5845691e-01 4.1716179e+01 
8.5861288e-02 6.1683756e-01 4.1774368e+01 
-2.6447710e-01 6.9743657e-01 4.1711910e+01 
3.0427080e-01 4.1638452e-01 4.1839512e+01 
2.6751360e-01 3.7833902e-01 4.1830902e+01 
5.1012677e-01 2.9080975e-01 4.1931297e+01 
-3.7014309e-02 7.4967718e-01 4.1691463e+01 
-4.3632072e-01 9.6401966e-01 4.1650398e+01 
2.5847588e-02 4.9913955e-01 4.1707767e+01 
-1.5583332e-01 8.4415752e-01 4.1610870e+01 
-3.8322043e-01 8.2981020e-01 4.1595791e+01 
-3.0884841e-01 9.2456430e-01 4.1582397e+01 
-1.3665022e-01 5.9708190e-01 4.1621960e+01 
9.3565010e-02 6.1167872e-01 4.1605015e+01 
-2.6268822e-01 6.9460052e-01 4.1538593e+01 
-4.3632022e-01 9.6401656e-01 4.1513885e+01 
-3.1243213e-02 7.4732590e-01 4.1520226e+01 
2.7603787e-01 3.7115356e-01 4.1624012e+01 
2.8505871e-01 4.3281260e-01 4.1611507e+01 
5.2195001e-01 2.8233302e-01 4.1725052e+01 
3.3468332e-02 4.9260557e-01 4.1534447e+01 
-3.9853087e-01 8.5081697e-01 4.1443768e+01 
-3.2560509e-01 9.3245691e-01 4.1443577e+01 
-1.5212752e-01 8.4385180e-01 4.1437847e+01 
-1.3227913e-01 5.9230179e-01 4.1446728e+01 
-4.3631971e-01 9.6401358e-01 4.1376381e+01 
[...]
POINT_DATA 6166
FIELD FieldData 5
DISPLACEMENT 3 6166  float
3.8255164e-01 3.4896305e-01 -5.1457472e-03 
3.8026315e-01 3.4666362e-01 -5.1019802e-03 
3.8252097e-01 3.4890869e-01 -6.3486272e-03 
3.8251886e-01 3.4895742e-01 -3.7554502e-03 
3.7908900e-01 3.4546143e-01 -6.2257564e-03 
3.7917754e-01 3.4560046e-01 -3.6751404e-03 
3.7796199e-01 3.4435144e-01 -5.0579589e-03 
3.8248867e-01 3.4886053e-01 -7.1505271e-03 
3.8248187e-01 3.4892339e-01 -3.5999508e-03 
3.8015613e-01 3.4651586e-01 -7.1565029e-03 
3.8007322e-01 3.4650350e-01 -3.5396139e-03 
3.7678128e-01 3.4314215e-01 -6.2084086e-03 
3.7661612e-01 3.4302658e-01 -3.6367930e-03 
3.7778407e-01 3.4413147e-01 -7.1625444e-03 
3.7564787e-01 3.4202629e-01 -5.0136792e-03 
3.8245752e-01 3.4882027e-01 -7.6106554e-03 
3.7762496e-01 3.4404382e-01 -3.4783061e-03 
3.8244975e-01 3.4888360e-01 -3.9851069e-03 
3.7888116e-01 3.4522533e-01 -7.6159937e-03 
3.7876734e-01 3.4518412e-01 -3.8895286e-03 
3.7446055e-01 3.4080982e-01 -6.1908918e-03 
3.7426060e-01 3.4065965e-01 -3.5975312e-03 
3.7537128e-01 3.4170613e-01 -7.1686213e-03 
3.7513590e-01 3.4154314e-01 -3.4160176e-03 
3.7332064e-01 3.3968794e-01 -4.9691428e-03 
3.7648731e-01 3.4281898e-01 -7.6241703e-03 
3.8242239e-01 3.4878400e-01 -7.6629375e-03 
3.7629756e-01 3.4270269e-01 -3.8340061e-03 
3.8241512e-01 3.4883305e-01 -4.7931010e-03 
3.7212655e-01 3.3846417e-01 -6.1731874e-03 
3.7209654e-01 3.3848354e-01 -3.6448417e-03 
3.7291643e-01 3.3923855e-01 -7.1746963e-03 
3.7762034e-01 3.4395736e-01 -7.6522636e-03 
3.7405202e-01 3.4037101e-01 -7.6323724e-03 
3.7260476e-01 3.3900025e-01 -3.3527412e-03 
3.7747893e-01 3.4387207e-01 -4.7612507e-03 
3.7967330e-01 3.4602156e-01 -7.6221596e-03 
3.7378627e-01 3.4017962e-01 -3.7777924e-03 
3.7098005e-01 3.3733621e-01 -4.9243602e-03 
3.7964365e-01 3.4603807e-01 -5.2646166e-03 
3.7546206e-01 3.4178749e-01 -7.6757437e-03 
3.7525091e-01 3.4163639e-01 -4.5656315e-03 
3.8238275e-01 3.4874260e-01 -7.7459887e-03 
3.8237712e-01 3.4877282e-01 -5.9201042e-03 
3.6977908e-01 3.3610511e-01 -6.1553251e-03 
3.6974916e-01 3.3612514e-01 -3.5930176e-03 
3.7041822e-01 3.3672747e-01 -7.1807364e-03 
3.7157398e-01 3.3788010e-01 -7.6405434e-03 
3.7003022e-01 3.3641374e-01 -3.2884104e-03 
3.7123221e-01 3.3761358e-01 -3.7208018e-03 
3.6862585e-01 3.3497095e-01 -4.8792399e-03 
3.7274852e-01 3.3906060e-01 -7.6462082e-03 
3.7245587e-01 3.3882481e-01 -4.6807295e-03 
3.7640232e-01 3.4273040e-01 -7.7917660e-03 
3.7959388e-01 3.4593490e-01 -7.9734251e-03 
3.7956667e-01 3.4593204e-01 -6.7274799e-03 
3.7623689e-01 3.4259638e-01 -6.1516878e-03 
3.6741278e-01 3.3377677e-01 -3.5987617e-03 
3.6741790e-01 3.3373228e-01 -6.1371690e-03 
3.6905190e-01 3.3534497e-01 -7.6486380e-03 
3.7051377e-01 3.3681384e-01 -7.6717772e-03 
3.6787534e-01 3.3417147e-01 -7.1867001e-03 
3.8233894e-01 3.4868985e-01 -8.1960317e-03 
3.8233560e-01 3.4870318e-01 -7.3487973e-03 
3.6863405e-01 3.3500332e-01 -3.6631571e-03 
3.7015110e-01 3.3651221e-01 -4.4787400e-03 
3.6741099e-01 3.3378246e-01 -3.2231468e-03 
3.6625797e-01 3.3259192e-01 -4.8339441e-03 
3.7149143e-01 3.3779451e-01 -7.7796504e-03 
3.6504295e-01 3.3134583e-01 -6.1189565e-03 
3.6501330e-01 3.3136734e-01 -3.4881958e-03 
3.6648440e-01 3.3276427e-01 -7.6565892e-03 
3.7117565e-01 3.3750972e-01 -6.1244424e-03 
3.6528632e-01 3.3156937e-01 -7.1924948e-03 
3.6770317e-01 3.3398956e-01 -7.6387101e-03 
3.6599046e-01 3.3234748e-01 -3.6048079e-03 
3.6474562e-01 3.3110487e-01 -3.1566890e-03 
3.6725909e-01 3.3360314e-01 -4.5998613e-03 
3.6387610e-01 3.3019900e-01 -4.7882991e-03 
3.8229230e-01 3.4861690e-01 -9.5292712e-03 
3.7836558e-01 3.4466991e-01 -9.5235724e-03 
3.6265391e-01 3.2894507e-01 -6.1004804e-03 
3.6262447e-01 3.2896748e-01 -3.4351754e-03 
3.6387005e-01 3.3013669e-01 -7.6643392e-03 
3.6511201e-01 3.3138537e-01 -7.6342020e-03 
3.6487290e-01 3.3120903e-01 -4.3911468e-03 
3.6264974e-01 3.2891959e-01 -7.1980390e-03 
3.6330011e-01 3.2964477e-01 -3.5457397e-03 
3.6148000e-01 3.2779190e-01 -4.7423923e-03 
3.7443888e-01 3.4072307e-01 -9.5177498e-03 
3.6582807e-01 3.3210409e-01 -7.6841060e-03 
3.6203274e-01 3.2837981e-01 -3.0892382e-03 
3.6840686e-01 3.3468702e-01 -8.1470702e-03 
3.6842912e-01 3.3472770e-01 -7.2148670e-03 
3.6593845e-01 3.3224633e-01 -6.1009410e-03 
3.6038917e-01 3.2672471e-01 -3.2557098e-03 
3.6025056e-01 3.2653034e-01 -6.0815769e-03 
3.6247331e-01 3.2873368e-01 -7.6292488e-03 
3.6120737e-01 3.2746071e-01 -7.6718903e-03 
3.7051249e-01 3.3677667e-01 -9.5116468e-03 
3.5996419e-01 3.2622075e-01 -7.2036097e-03 
3.6187780e-01 3.2819664e-01 -4.5188600e-03 
3.6056128e-01 3.2689369e-01 -3.4857458e-03 
3.5906962e-01 3.2537058e-01 -4.6961363e-03 
3.5927084e-01 3.2560560e-01 -3.0206859e-03 
3.6448303e-01 3.3074328e-01 -8.1446553e-03 
3.6007071e-01 3.2631862e-01 -7.6585319e-03 
3.5783270e-01 3.2410130e-01 -6.0625495e-03 
3.5785055e-01 3.2417512e-01 -3.1857237e-03 
3.5849479e-01 3.2473481e-01 -7.6791113e-03 
3.5940504e-01 3.2571599e-01 -4.3027704e-03 
3.6658689e-01 3.3283103e-01 -9.5048556e-03 
3.6113122e-01 3.2738250e-01 -7.7535138e-03 
3.5722801e-01 3.2347128e-01 -7.2087818e-03 
3.5664439e-01 3.2293472e-01 -4.6495041e-03 
3.5777277e-01 3.2409278e-01 -3.4252650e-03 
3.6051467e-01 3.2679600e-01 -6.0821814e-03 
3.5645825e-01 3.2278100e-01 -2.9510662e-03 
3.5540006e-01 3.2165757e-01 -6.0431543e-03 
3.5527250e-01 3.2158518e-01 -3.1596012e-03 
3.5704711e-01 3.2328138e-01 -7.6174815e-03 
3.5573080e-01 3.2195750e-01 -7.6859528e-03 
3.6266145e-01 3.2888588e-01 -9.4978753e-03 
3.5420451e-01 3.2048440e-01 -4.6027405e-03 
3.5630026e-01 3.2259378e-01 -4.4375947e-03 
3.5443962e-01 3.2066977e-01 -7.2135194e-03 
3.5493261e-01 3.2124051e-01 -3.3637590e-03 
3.5359377e-01 3.1990442e-01 -2.8805190e-03 
3.5295275e-01 3.1919932e-01 -6.0233288e-03 
3.5292405e-01 3.1922466e-01 -3.2192811e-03 
3.5455242e-01 3.2077411e-01 -7.6481458e-03 
3.5565880e-01 3.2188398e-01 -7.7392920e-03 
3.5291380e-01 3.1912732e-01 -7.6921349e-03 
3.5373536e-01 3.2002121e-01 -4.2136274e-03 
3.5175002e-01 3.1801951e-01 -4.5558931e-03 
3.5873777e-01 3.2494327e-01 -9.4903912e-03 
3.5489210e-01 3.2114658e-01 -6.0680998e-03 
3.5159761e-01 3.1781486e-01 -7.2177895e-03 
3.5203993e-01 3.1833562e-01 -3.3019781e-03 
3.5052410e-01 3.1681418e-01 -3.2128158e-03 
3.5049066e-01 3.1672689e-01 -6.0035745e-03 
3.5067576e-01 3.1697434e-01 -2.8085592e-03 
3.5141242e-01 3.1762069e-01 -7.6024518e-03 
3.4928039e-01 3.1553987e-01 -4.5084795e-03 
3.5004258e-01 3.1624320e-01 -7.6977368e-03 
3.5051480e-01 3.1678343e-01 -4.3567708e-03 
3.4870014e-01 3.1490460e-01 -7.2215698e-03 
3.4909314e-01 3.1537679e-01 -3.2388428e-03 
3.5271958e-01 3.1892350e-01 -8.1342682e-03 
3.5481605e-01 3.2100344e-01 -9.4822794e-03 
3.4801325e-01 3.1423870e-01 -5.9834961e-03 
3.4798491e-01 3.1426549e-01 -3.1095340e-03 
3.4770238e-01 3.1398937e-01 -2.7353403e-03 
3.4882003e-01 3.1501636e-01 -7.6346737e-03 
3.4997562e-01 3.1617528e-01 -7.7237305e-03 
3.4679556e-01 3.1304511e-01 -4.4610752e-03 
3.4711453e-01 3.1330243e-01 -7.7030575e-03 
3.4785217e-01 3.1411368e-01 -4.1242940e-03 
3.4905910e-01 3.1528768e-01 -6.0593984e-03 
3.4574038e-01 3.1201449e-01 -2.9423255e-03 
3.4781930e-01 3.1403899e-01 -6.2316987e-03 
3.4557325e-01 3.1179214e-01 -5.7858140e-03 
3.4574547e-01 3.1193727e-01 -7.2248178e-03 
3.4608939e-01 3.1236163e-01 -3.1755250e-03 
3.5089600e-01 3.1706518e-01 -9.4729643e-03 
3.4467193e-01 3.1094772e-01 -2.6614205e-03 
3.4429571e-01 3.1053591e-01 -4.4133114e-03 
3.4555545e-01 3.1173882e-01 -7.5841998e-03 
3.4412855e-01 3.1030372e-01 -7.7074375e-03 
3.4306711e-01 3.0933252e-01 -2.8442279e-03 
3.4301311e-01 3.0921841e-01 -5.9415931e-03 
3.4450728e-01 3.1075191e-01 -4.2761005e-03 
3.4273201e-01 3.0891141e-01 -7.2278120e-03 
3.4302753e-01 3.0928868e-01 -3.1108689e-03 
3.4178033e-01 3.0801126e-01 -4.3649999e-03 
3.4697819e-01 3.1313071e-01 -9.4629815e-03 
3.4158263e-01 3.0784756e-01 -2.5861328e-03 
3.4415361e-01 3.1032747e-01 -7.7868728e-03 
3.4253976e-01 3.0871060e-01 -7.5737056e-03 
3.4048945e-01 3.0668578e-01 -5.9203277e-03 
3.4108245e-01 3.0724540e-01 -7.7106864e-03 
3.4174046e-01 3.0797881e-01 -4.0347702e-03 
3.4033954e-01 3.0659553e-01 -2.7931111e-03 
3.4300125e-01 3.0920434e-01 -6.0563730e-03 
3.3965769e-01 3.0582508e-01 -7.2296569e-03 
3.3924863e-01 3.0547118e-01 -4.3161963e-03 
3.3990631e-01 3.0615693e-01 -3.0462488e-03 
3.4000352e-01 3.0616605e-01 -7.5167874e-03 
3.3843303e-01 3.0468795e-01 -2.5100394e-03 
3.3795002e-01 3.0413768e-01 -5.8982098e-03 
3.3792186e-01 3.0416706e-01 -2.8858329e-03 
3.4306470e-01 3.0920184e-01 -9.4520533e-03 
3.4097680e-01 3.0713150e-01 -8.1156446e-03 
3.3797505e-01 3.0412629e-01 -7.7127893e-03 
3.3706513e-01 3.0327630e-01 -4.5154444e-03 
3.3826455e-01 3.0448699e-01 -4.1962811e-03 
3.3670187e-01 3.0291682e-01 -4.2672157e-03 
3.3652133e-01 3.0267793e-01 -7.2294236e-03 
3.3672437e-01 3.0296490e-01 -2.9817310e-03 
3.3539516e-01 3.0157483e-01 -5.8758245e-03 
3.3535773e-01 3.0159515e-01 -2.8691546e-03 
3.3632350e-01 3.0247188e-01 -7.5470400e-03 
3.3522153e-01 3.0146754e-01 -2.4333165e-03 
3.3747628e-01 3.0362210e-01 -7.8968098e-03 
3.3731234e-01 3.0348578e-01 -6.4761257e-03 
3.3915287e-01 3.0527434e-01 -9.4393361e-03 
3.3480504e-01 3.0094534e-01 -7.7133961e-03 
3.3413959e-01 3.0034757e-01 -4.2188484e-03 
3.3505163e-01 3.0126429e-01 -4.1576703e-03 
3.3332142e-01 2.9946759e-01 -7.2285356e-03 
3.3307400e-01 2.9930866e-01 -2.6603548e-03 
3.3282572e-01 2.9899815e-01 -5.8523375e-03 
3.3347905e-01 2.9971126e-01 -2.9151819e-03 
3.3312121e-01 2.9925933e-01 -7.5326576e-03 
3.3194733e-01 2.9818496e-01 -2.3550596e-03 
3.3156329e-01 2.9776403e-01 -4.1700131e-03 
3.3156943e-01 2.9770026e-01 -7.7126995e-03 
3.3339807e-01 2.9955974e-01 -6.4275214e-03 
3.3317250e-01 2.9930666e-01 -7.7617890e-03 
3.3524668e-01 3.0135471e-01 -9.4252815e-03 
3.3177480e-01 2.9797879e-01 -4.1187387e-03 
3.3021319e-01 2.9643777e-01 -2.7163979e-03 
3.3021158e-01 2.9638004e-01 -5.6346054e-03 
3.3005509e-01 2.9619274e-01 -7.2271735e-03 
3.3016992e-01 2.9639456e-01 -2.8490713e-03 
3.2897004e-01 2.9516491e-01 -4.1200779e-03 
3.3031833e-01 2.9644990e-01 -7.4765370e-03 
3.2860738e-01 2.9483807e-01 -2.2763202e-03 
3.2826746e-01 2.9438975e-01 -7.7107283e-03 
3.2763961e-01 2.9379922e-01 -5.8057234e-03 
3.2761088e-01 2.9383111e-01 -2.6590447e-03 
3.2843283e-01 2.9462934e-01 -4.0805023e-03 
3.2967472e-01 2.9582474e-01 -6.5068691e-03 
3.3134669e-01 2.9744306e-01 -9.4102221e-03 
3.2672173e-01 2.9285127e-01 -7.2243270e-03 
3.2907912e-01 2.9520074e-01 -7.8475894e-03 
3.2636058e-01 2.9255128e-01 -4.0688878e-03 
3.2679436e-01 2.9301277e-01 -2.7823115e-03 
3.2687294e-01 2.9299712e-01 -7.4505885e-03 
3.2502171e-01 2.9117709e-01 -5.7810578e-03 
3.2499310e-01 2.9121053e-01 -2.6012999e-03 
3.2520020e-01 2.9142562e-01 -2.1960761e-03 
3.2489643e-01 2.9101157e-01 -7.7074678e-03 
3.2502353e-01 2.9121417e-01 -4.0426510e-03 
3.2373515e-01 2.8992304e-01 -4.0185759e-03 
3.2594618e-01 2.9209158e-01 -6.3437885e-03 
3.2745352e-01 2.9354006e-01 -9.3931863e-03 
3.2331795e-01 2.8944129e-01 -7.2201686e-03 
3.2335004e-01 2.8956410e-01 -2.7148598e-03 
3.2529920e-01 2.9141262e-01 -7.8621060e-03 
3.2238811e-01 2.8853962e-01 -5.7557253e-03 
3.2236001e-01 2.8857443e-01 -2.5435144e-03 
3.2328829e-01 2.8940645e-01 -7.4302135e-03 
3.2172313e-01 2.8794554e-01 -2.1147125e-03 
3.2109410e-01 2.8727892e-01 -3.9687152e-03 
3.2145372e-01 2.8756389e-01 -7.7025769e-03 
3.2154432e-01 2.8773078e-01 -4.0052412e-03 
3.1973925e-01 2.8588814e-01 -5.7302034e-03 
3.1971067e-01 2.8592238e-01 -2.4846457e-03 
3.1984138e-01 2.8596097e-01 -7.2151115e-03 
3.2356769e-01 2.8964645e-01 -9.3742153e-03 
3.1983477e-01 2.8604662e-01 -2.6468416e-03 
3.2154560e-01 2.8768739e-01 -6.1743748e-03 
3.2154995e-01 2.8765664e-01 -7.8819478e-03 
3.1843635e-01 2.8461972e-01 -3.9169514e-03 
3.1964591e-01 2.8575987e-01 -7.4078394e-03 
3.1817415e-01 2.8439572e-01 -2.0330041e-03 
3.1793788e-01 2.8404483e-01 -7.6952321e-03 
3.1852666e-01 2.8470600e-01 -4.2216112e-03 
3.1707212e-01 2.8322017e-01 -5.7042278e-03 
3.1704497e-01 2.8325734e-01 -2.4279442e-03 
3.1629065e-01 2.8240833e-01 -7.2074370e-03 
3.1968889e-01 2.8576156e-01 -9.3566366e-03 
3.1576264e-01 2.8194714e-01 -3.8678055e-03 
3.1624755e-01 2.8245899e-01 -2.5782443e-03 
3.1774768e-01 2.8385088e-01 -7.8522172e-03 
3.1732479e-01 2.8345707e-01 -6.4312844e-03 
3.1599429e-01 2.8210598e-01 -7.3853196e-03 
3.1439054e-01 2.8053921e-01 -5.6791888e-03 
3.1436205e-01 2.8057629e-01 -2.3702285e-03 
3.1455272e-01 2.8077516e-01 -1.9488018e-03 
3.1434685e-01 2.8045294e-01 -7.6856595e-03 
3.1490350e-01 2.8107890e-01 -4.3510706e-03 
3.1307173e-01 2.7925754e-01 -3.8173352e-03 
3.1266534e-01 2.7878255e-01 -7.1978155e-03 
3.1255662e-01 2.7873582e-01 -4.1413102e-03 
3.1581855e-01 2.8188914e-01 -9.3364269e-03 
3.1258592e-01 2.7879933e-01 -2.5091479e-03 
3.1398860e-01 2.8009143e-01 -7.7659655e-03 
3.1169179e-01 2.7784196e-01 -5.6505552e-03 
3.1166255e-01 2.7787814e-01 -2.3113040e-03 
3.1231192e-01 2.7842388e-01 -7.3668514e-03 
3.1348154e-01 2.7961037e-01 -6.5298099e-03 
3.1085515e-01 2.7708104e-01 -1.8650150e-03 
3.1036496e-01 2.7655277e-01 -3.7645767e-03 
3.1067801e-01 2.7678555e-01 -7.6745101e-03 
3.1114900e-01 2.7732670e-01 -4.3359296e-03 
3.0897558e-01 2.7512822e-01 -5.6238123e-03 
3.0894855e-01 2.7516747e-01 -2.2532113e-03 
3.0895767e-01 2.7507904e-01 -7.1855597e-03 
3.1195459e-01 2.7802458e-01 -9.3150772e-03 
3.0884713e-01 2.7506524e-01 -2.4399457e-03 
3.1021026e-01 2.7631459e-01 -7.7331704e-03 
3.0764103e-01 2.7383339e-01 -3.7139542e-03 
3.0857900e-01 2.7469462e-01 -7.3440787e-03 
3.0971432e-01 2.7584201e-01 -6.6746045e-03 
3.0701360e-01 2.7318379e-01 -4.9342141e-03 
3.0707908e-01 2.7331197e-01 -1.7781362e-03 
3.0692819e-01 2.7304044e-01 -7.6602832e-03 
3.0624336e-01 2.7240199e-01 -5.5965725e-03 
3.0727249e-01 2.7345386e-01 -4.3955431e-03 
3.0587754e-01 2.7210566e-01 -2.0517495e-03 
3.0517036e-01 2.7129784e-01 -7.1723899e-03 
3.0489913e-01 2.7109838e-01 -3.6618933e-03 
3.0810240e-01 2.7417627e-01 -9.2909448e-03 
3.0503839e-01 2.7126083e-01 -2.5698161e-03 
3.0630609e-01 2.7241793e-01 -7.6571386e-03 
3.0492097e-01 2.7104172e-01 -7.3430091e-03 
3.0607110e-01 2.7219748e-01 -7.0015062e-03 
3.0350232e-01 2.6966786e-01 -5.5563678e-03 
3.0347478e-01 2.6970699e-01 -2.1395930e-03 
3.0322281e-01 2.6946506e-01 -1.6912564e-03 
3.0311385e-01 2.6923466e-01 -7.6425895e-03 
3.0216017e-01 2.6836652e-01 -3.6108699e-03 
3.0265138e-01 2.6884219e-01 -4.3932511e-03 
3.0133030e-01 2.6746815e-01 -7.1571618e-03 
3.0426398e-01 2.7034548e-01 -9.2633460e-03 
3.0077258e-01 2.6694489e-01 -5.5080615e-03 
3.0074665e-01 2.6698577e-01 -2.0900723e-03 
3.0118346e-01 2.6742086e-01 -2.2694222e-03 
3.0223802e-01 2.6837319e-01 -6.9777039e-03 
3.0163094e-01 2.6775369e-01 -7.6415949e-03 
3.0042380e-01 2.6655781e-01 -7.3064417e-03 
2.9943985e-01 2.6565382e-01 -3.5612944e-03 
2.9938430e-01 2.6563829e-01 -1.6030476e-03 
2.9930791e-01 2.6543951e-01 -7.6277093e-03 
2.9908046e-01 2.6529679e-01 -3.6599324e-03 
2.9806313e-01 2.6424456e-01 -5.4581673e-03 
2.9787648e-01 2.6412746e-01 -1.8837447e-03 
2.9755366e-01 2.6370239e-01 -7.1405289e-03 
3.0043441e-01 2.6652673e-01 -9.2350272e-03 
2.9737362e-01 2.6362559e-01 -2.1642940e-03 
2.9673836e-01 2.6296228e-01 -3.5102726e-03 
2.9721338e-01 2.6335651e-01 -7.3073143e-03 
2.9809868e-01 2.6426828e-01 -5.9764097e-03 
2.9840949e-01 2.6453689e-01 -7.9462156e-03 
2.9690006e-01 2.6304454e-01 -7.3018884e-03 
2.9560310e-01 2.6187181e-01 -1.5195828e-03 
2.9537037e-01 2.6156268e-01 -5.4075341e-03 
2.9534569e-01 2.6160422e-01 -1.9931037e-03 
2.9556480e-01 2.6170751e-01 -7.6094083e-03 
2.9530263e-01 2.6153514e-01 -3.5172678e-03 
2.9405648e-01 2.6029244e-01 -3.4609588e-03 
2.9383945e-01 2.6000139e-01 -7.1198251e-03 
2.9661599e-01 2.6272202e-01 -9.2098722e-03 
2.9362279e-01 2.5989145e-01 -2.0629887e-03 
2.9296660e-01 2.5924045e-01 -1.7511370e-03 
2.9270026e-01 2.5890481e-01 -5.3555756e-03 
2.9350492e-01 2.5966054e-01 -7.2923871e-03 
2.9459667e-01 2.6073742e-01 -7.9206163e-03 
2.9459777e-01 2.6075897e-01 -6.9274004e-03 
2.9188040e-01 2.5816602e-01 -1.4379580e-03 
2.9318500e-01 2.5938752e-01 -5.2005462e-03 
2.9188290e-01 2.5804120e-01 -7.5887614e-03 
2.9139614e-01 2.5764349e-01 -3.4108514e-03 
2.9256082e-01 2.5872093e-01 -7.2662155e-03 
2.9158410e-01 2.5783545e-01 -3.3793461e-03 
2.9004809e-01 2.5626436e-01 -5.3050485e-03 
2.9018536e-01 2.5636488e-01 -7.0991977e-03 
2.9280230e-01 2.5892180e-01 -9.1768112e-03 
2.8992996e-01 2.5621814e-01 -1.9648566e-03 
2.8952569e-01 2.5581723e-01 -1.6475801e-03 
2.8985786e-01 2.5603101e-01 -7.2762915e-03 
2.8875127e-01 2.5501418e-01 -3.3625392e-03 
2.9079068e-01 2.5694489e-01 -7.8935428e-03 
2.9079062e-01 2.5696561e-01 -6.9012390e-03 
2.8821427e-01 2.5452134e-01 -1.3580804e-03 
2.8826162e-01 2.5443915e-01 -7.5662849e-03 
2.8741366e-01 2.5364655e-01 -5.2520684e-03 
2.8739053e-01 2.5368893e-01 -1.8523393e-03 
2.8876591e-01 2.5499719e-01 -4.8733209e-03 
2.8876734e-01 2.5494611e-01 -7.2296914e-03 
2.8792325e-01 2.5419706e-01 -3.2462813e-03 
2.8682086e-01 2.5309536e-01 -3.3325455e-03 
2.8659290e-01 2.5279331e-01 -7.0756385e-03 
2.8612778e-01 2.5240627e-01 -3.3148918e-03 
2.8900155e-01 2.5513709e-01 -9.1429092e-03 
2.8600445e-01 2.5232288e-01 -1.3682338e-03 
2.8629503e-01 2.5260538e-01 -1.8705780e-03 
2.8627202e-01 2.5246531e-01 -7.2587859e-03 
2.8700039e-01 2.5317547e-01 -7.8634555e-03 
2.8699887e-01 2.5319549e-01 -6.8735671e-03 
2.8480104e-01 2.5105244e-01 -5.1989686e-03 
2.8477514e-01 2.5109163e-01 -1.8078837e-03 
2.8466678e-01 2.5093737e-01 -4.1845408e-03 
2.8460377e-01 2.5093502e-01 -1.2829412e-03 
2.8468284e-01 2.5094405e-01 -4.6666292e-03 
2.8470314e-01 2.5090173e-01 -7.5399345e-03 
2.8498498e-01 2.5124159e-01 -4.8524449e-03 
2.8498912e-01 2.5119182e-01 -7.1911579e-03 
2.8432146e-01 2.5062031e-01 -3.1203583e-03 
2.8352490e-01 2.4982215e-01 -3.2650044e-03 
2.8340095e-01 2.4973834e-01 -1.3249351e-03 
2.8306019e-01 2.4928440e-01 -7.0461757e-03 
2.8245249e-01 2.4878381e-01 -1.8935959e-03 
2.8271392e-01 2.4905157e-01 -1.7779690e-03 
2.8521636e-01 2.5137490e-01 -9.1065411e-03 
2.8241128e-01 2.4871649e-01 -3.2719660e-03 
2.8220820e-01 2.4847767e-01 -5.1449896e-03 
2.8274861e-01 2.4896646e-01 -7.2425087e-03 
2.8322545e-01 2.4942732e-01 -7.8315660e-03 
2.8322271e-01 2.4944659e-01 -6.8441001e-03 
2.8094310e-01 2.4726050e-01 -3.2190986e-03 
2.8105175e-01 2.4741140e-01 -1.2086519e-03 
2.8119910e-01 2.4742460e-01 -7.5118281e-03 
2.8077400e-01 2.4710239e-01 -2.9911990e-03 
2.8121924e-01 2.4750237e-01 -4.8343632e-03 
2.8122556e-01 2.4745601e-01 -7.1544307e-03 
2.7963701e-01 2.4592751e-01 -5.0930660e-03 
2.7973354e-01 2.4605899e-01 -3.3702466e-03 
2.7961108e-01 2.4596918e-01 -1.7221936e-03 
2.7958515e-01 2.4583569e-01 -7.0191873e-03 
2.7918956e-01 2.4555549e-01 -1.6889636e-03 
2.8144765e-01 2.4763352e-01 -9.0671945e-03 
2.7928093e-01 2.4552514e-01 -7.2208061e-03 
2.7838022e-01 2.4472003e-01 -3.1706705e-03 
2.7825722e-01 2.4463704e-01 -1.2324494e-03 
2.7768597e-01 2.4399859e-01 -4.7413255e-03 
2.7775761e-01 2.4401018e-01 -7.4821981e-03 
2.7755243e-01 2.4394205e-01 -1.1373785e-03 
2.7946708e-01 2.4569759e-01 -7.7972435e-03 
2.7946320e-01 2.4571581e-01 -6.8120384e-03 
2.7727693e-01 2.4362339e-01 -3.3171310e-03 
2.7719840e-01 2.4352536e-01 -4.3421108e-03 
2.7708244e-01 2.4339657e-01 -5.0401120e-03 
2.7705798e-01 2.4343990e-01 -1.6786664e-03 
2.7727988e-01 2.4364066e-01 -2.8696335e-03 
2.7746701e-01 2.4378285e-01 -4.8107551e-03 
2.7747533e-01 2.4373795e-01 -7.1140099e-03 
2.7616885e-01 2.4244927e-01 -6.9881645e-03 
2.7583593e-01 2.4220116e-01 -3.1243719e-03 
2.7571425e-01 2.4211948e-01 -1.1893474e-03 
2.7572271e-01 2.4212334e-01 -1.6040339e-03 
2.7586886e-01 2.4214251e-01 -7.2027612e-03 
2.7769384e-01 2.4391007e-01 -9.0254378e-03 
2.7454758e-01 2.4088715e-01 -4.9874177e-03 
2.7452543e-01 2.4093235e-01 -1.6359673e-03 
2.7433375e-01 2.4069180e-01 -4.1090553e-03 
2.7437156e-01 2.4065630e-01 -7.4510933e-03 
2.7410692e-01 2.4053134e-01 -1.0643840e-03 
2.7572137e-01 2.4198455e-01 -7.7607264e-03 
2.7571672e-01 2.4200204e-01 -6.7781638e-03 
2.7331081e-01 2.3970173e-01 -3.0810791e-03 