# vtk DataFile Version 4.0
vtk output
ASCII
DATASET UNSTRUCTURED_GRID
POINTS 6166 float
-4.3633327e-01 9.6409470e-01 4.4200001e+01 
-4.3633261e-01 9.6409082e-01 4.4079685e+01 
-3.2145375e-01 9.1276109e-01 4.4200001e+01 
-3.8566181e-01 8.4097892e-01 4.4200001e+01 
-3.3069235e-01 9.1895354e-01 4.4019413e+01 
-3.8473952e-01 8.3919770e-01 4.4024357e+01 
-4.3633196e-01 9.6408689e-01 4.3958702e+01 
-2.1293370e-01 8.4677851e-01 4.4200001e+01 
-2.9042658e-01 7.3813015e-01 4.4200001e+01 
-2.1019450e-01 8.4669626e-01 4.4077393e+01 
-2.8909999e-01 7.3605996e-01 4.4073399e+01 
-3.2963324e-01 9.1929907e-01 4.3898094e+01 
-3.8679782e-01 8.4179753e-01 4.3889645e+01 
-2.0740938e-01 8.4661204e-01 4.3952713e+01 
-4.3633130e-01 9.6408290e-01 4.3837040e+01 
-1.1677200e-01 7.7521002e-01 4.4200001e+01 
-2.8775173e-01 7.3395580e-01 4.3944717e+01 
-1.9365783e-01 6.6203654e-01 4.4200001e+01 
-1.1309985e-01 7.7540898e-01 4.4012005e+01 
-1.9181472e-01 6.5888047e-01 4.4006447e+01 
-3.2856464e-01 9.1964108e-01 4.3776085e+01 
-3.8823184e-01 8.4352189e-01 4.3765770e+01 
-2.0457739e-01 8.4652513e-01 4.3825886e+01 
-2.8638119e-01 7.3181647e-01 4.3813885e+01 
-4.3633065e-01 9.6407896e-01 4.3714680e+01 
-1.0911675e-01 7.7426714e-01 4.3886200e+01 
-2.1001574e-02 6.8269837e-01 4.4200001e+01 
-1.8902887e-01 6.5566909e-01 4.3876659e+01 
-7.8887597e-02 5.9015810e-01 4.4200001e+01 
-3.2748649e-01 9.1997939e-01 4.3653378e+01 
-3.9889076e-01 8.5876143e-01 4.3651733e+01 
-2.0169757e-01 8.4643483e-01 4.3696846e+01 
-7.2496021e-03 6.7325598e-01 4.3947758e+01 
-1.0504345e-01 7.7307969e-01 4.3758209e+01 
-2.8498772e-01 7.2964084e-01 4.3680840e+01 
-6.3224643e-02 5.7783771e-01 4.3940754e+01 
3.5808440e-02 6.2679136e-01 4.4056572e+01 
-1.8616955e-01 6.5238589e-01 4.3744686e+01 
-4.3632996e-01 9.6407503e-01 4.3591618e+01 
-9.8678423e-03 5.4892725e-01 4.4055367e+01 
-1.8652271e-02 6.8798620e-01 4.3834026e+01 
-7.9845116e-02 5.8636194e-01 4.3823372e+01 
8.7777540e-02 5.7885915e-01 4.4200001e+01 
5.3622175e-02 5.1732427e-01 4.4200001e+01 
-3.2639861e-01 9.2031354e-01 4.3529953e+01 
-3.9894739e-01 8.5844576e-01 4.3528313e+01 
-1.9876897e-01 8.4634024e-01 4.3565521e+01 
-1.0087753e-01 7.7184403e-01 4.3627972e+01 
-2.8357074e-01 7.2742778e-01 4.3545506e+01 
-1.8323407e-01 6.4902818e-01 4.3610458e+01 
-4.3632931e-01 9.6407109e-01 4.3467831e+01 
3.1033519e-03 6.6751039e-01 4.3691772e+01 
-5.3600248e-02 5.6906003e-01 4.3676846e+01 
1.2436585e-01 5.5082864e-01 4.3886215e+01 
1.7079005e-01 5.1095647e-01 4.4054855e+01 
1.4951277e-01 4.6697062e-01 4.4053665e+01 
1.0028158e-01 4.8915190e-01 4.3877911e+01 
-4.0513036e-01 8.6722642e-01 4.3405304e+01 
-3.2530096e-01 9.2064321e-01 4.3405800e+01 
-9.6616447e-02 7.7055699e-01 4.3495411e+01 
-8.4563000e-03 6.8258613e-01 4.3574005e+01 
-1.9579062e-01 8.4624058e-01 4.3431831e+01 
2.1753120e-01 4.7335833e-01 4.4200001e+01 
2.0360756e-01 4.4289169e-01 4.4200001e+01 
-1.8021962e-01 6.4559317e-01 4.3473904e+01 
-7.0636064e-02 5.7773441e-01 4.3555408e+01 
-2.8212959e-01 7.2517604e-01 4.3407806e+01 
-4.3632865e-01 9.6406716e-01 4.3343307e+01 
1.3810426e-01 5.4143524e-01 4.3628246e+01 
-3.2419339e-01 9.2096806e-01 4.3280907e+01 
-3.9903235e-01 8.5775709e-01 4.3279266e+01 
-9.2257597e-02 7.6921552e-01 4.3360443e+01 
1.1508528e-01 4.7804743e-01 4.3612068e+01 
-1.9276154e-01 8.4613472e-01 4.3295704e+01 
1.4013666e-02 6.6131532e-01 4.3426643e+01 
-1.7712323e-01 6.4207786e-01 4.3334946e+01 
-2.8066361e-01 7.2288430e-01 4.3267666e+01 
-4.3382257e-02 5.5983055e-01 4.3403778e+01 
-4.3632799e-01 9.6406323e-01 4.3218033e+01 
3.7877345e-01 3.8273901e-01 4.4200001e+01 
3.9076596e-01 3.7443376e-01 4.3993755e+01 
-3.2307580e-01 9.2128778e-01 4.3155251e+01 
-3.9906058e-01 8.5738426e-01 4.3153610e+01 
-8.7798268e-02 7.6781619e-01 4.3222996e+01 
1.9689407e-02 6.5803534e-01 4.3290459e+01 
-6.0862999e-02 5.6866169e-01 4.3278019e+01 
-1.8968078e-01 8.4602165e-01 4.3157055e+01 
-1.7394182e-01 6.3847917e-01 4.3193501e+01 
-4.3632734e-01 9.6405929e-01 4.3091995e+01 
4.0275589e-01 3.6612594e-01 4.3787510e+01 
1.2304078e-01 5.5709994e-01 4.3330139e+01 
-2.7917209e-01 7.2055119e-01 4.3125000e+01 
2.5336364e-01 4.4907436e-01 4.3468094e+01 
2.3670304e-01 4.1684708e-01 4.3469433e+01 
1.3086085e-01 4.6634668e-01 4.3336948e+01 
-3.8351217e-01 8.3473074e-01 4.3036392e+01 
-3.2194808e-01 9.2160189e-01 4.3028820e+01 
2.5518833e-02 6.5462554e-01 4.3151749e+01 
-8.3235659e-02 7.6635528e-01 4.3082981e+01 
4.1474071e-01 3.5781288e-01 4.3581264e+01 
-1.8654740e-01 8.4590012e-01 4.3015797e+01 
-3.2522827e-02 5.5011308e-01 4.3120937e+01 
-1.7067213e-01 6.3479382e-01 4.3049488e+01 
-4.3632668e-01 9.6405542e-01 4.2965172e+01 
-2.7765438e-01 7.1817529e-01 4.2979721e+01 
2.6620242e-01 4.4011977e-01 4.3261948e+01 
1.3584816e-02 6.7044950e-01 4.3025066e+01 
-3.2081014e-01 9.2191011e-01 4.2901604e+01 
-3.8160574e-01 8.3169121e-01 4.2902863e+01 
-7.8566879e-02 7.6482886e-01 4.2940315e+01 
-5.0480481e-02 5.5910730e-01 4.2990566e+01 
4.2671782e-01 3.4949207e-01 4.3375019e+01 
1.6821145e-01 5.2049083e-01 4.3083881e+01 
-1.8336046e-01 8.4576881e-01 4.2871841e+01 
-4.3632606e-01 9.6405160e-01 4.2837555e+01 
-1.6731077e-01 6.3101834e-01 4.2902817e+01 
1.4768846e-01 4.5400122e-01 4.3051926e+01 
-2.7610970e-01 7.1575516e-01 4.2831745e+01 
-3.1966189e-01 9.2221189e-01 4.2773579e+01 
-3.8560396e-01 8.3684862e-01 4.2767078e+01 
3.7660085e-02 6.4738947e-01 4.2866421e+01 
-7.3788933e-02 7.6323271e-01 4.2794899e+01 
4.3868470e-01 3.4116083e-01 4.3168777e+01 
-4.3632543e-01 9.6404779e-01 4.2709122e+01 
-2.0968946e-02 5.3986710e-01 4.2827656e+01 
-1.8011902e-01 8.4562629e-01 4.2725094e+01 
-1.6385415e-01 6.2714905e-01 4.2753403e+01 
-2.7453732e-01 7.1328926e-01 4.2680973e+01 
-3.1850323e-01 9.2250693e-01 4.2644733e+01 
-3.9907700e-01 8.5570478e-01 4.2643101e+01 
2.5504474e-02 6.6361672e-01 4.2734810e+01 
1.8471870e-01 5.0880390e-01 4.2796177e+01 
-6.8898737e-02 7.6156229e-01 4.2646645e+01 
-3.9438177e-02 5.4903054e-01 4.2692345e+01 
-4.3632481e-01 9.6404403e-01 4.2579861e+01 
4.5063871e-01 3.3281663e-01 4.2962532e+01 
1.6565691e-01 4.4095638e-01 4.2756321e+01 
-1.7682223e-01 8.4547096e-01 4.2575459e+01 
-1.6029853e-01 6.2318206e-01 4.2601143e+01 
-4.0415615e-01 8.6278629e-01 4.2516582e+01 
-3.1733403e-01 9.2279470e-01 4.2515053e+01 
-2.7293649e-01 7.1077597e-01 4.2527313e+01 
5.0482783e-02 6.3954860e-01 4.2569923e+01 
-4.3632418e-01 9.6404034e-01 4.2449757e+01 
-6.3893095e-02 7.5981271e-01 4.2495445e+01 
-8.6617703e-03 5.2904755e-01 4.2523201e+01 
-1.7346917e-01 8.4530097e-01 4.2422829e+01 
-1.5663996e-01 6.1911333e-01 4.2445942e+01 
3.0435190e-01 4.1341871e-01 4.2643494e+01 
4.6257737e-01 3.2445681e-01 4.2756287e+01 
-3.1615424e-01 9.2307472e-01 4.2384518e+01 
-3.9902648e-01 8.5475212e-01 4.2382885e+01 
-2.7130640e-01 7.0821363e-01 4.2370659e+01 
3.8079392e-02 6.5619886e-01 4.2433029e+01 
2.0230262e-01 4.9620378e-01 4.2497147e+01 
-4.3632355e-01 9.6403670e-01 4.2318787e+01 
-5.8768708e-02 7.5797862e-01 4.2341198e+01 
-2.7680276e-02 5.3838593e-01 4.2382599e+01 
1.8486446e-01 4.2715022e-01 4.2449394e+01 
-3.8436696e-01 8.3356136e-01 4.2264896e+01 
8.9545198e-02 5.3233254e-01 4.2382050e+01 
-3.3225983e-01 9.3122375e-01 4.2255634e+01 
-1.7005907e-01 8.4511453e-01 4.2267101e+01 
-1.5287429e-01 6.1493850e-01 4.2287693e+01 
4.7449806e-01 3.1607881e-01 4.2550037e+01 
-2.6964626e-01 7.0560038e-01 4.2210907e+01 
-4.3632296e-01 9.6403313e-01 4.2186939e+01 
6.4036883e-02 6.3103610e-01 4.2261456e+01 
-5.3522192e-02 7.5605446e-01 4.2183796e+01 
-3.7873057e-01 8.2541841e-01 4.2124020e+01 
-3.1376252e-01 9.2360973e-01 4.2120819e+01 
4.4639236e-03 5.1760370e-01 4.2206776e+01 
-1.6659111e-01 8.4490943e-01 4.2108162e+01 
-1.4899719e-01 6.1065292e-01 4.2126286e+01 
-4.3632239e-01 9.6402961e-01 4.2054195e+01 
4.8639825e-01 3.0768004e-01 4.2343792e+01 
-2.6795524e-01 7.0293444e-01 4.2047943e+01 
2.4746621e-01 4.6040925e-01 4.2191032e+01 
7.1105182e-02 6.2650448e-01 4.2102463e+01 
-3.1255043e-01 9.2386365e-01 4.1987617e+01 
-4.8150036e-02 7.5403398e-01 4.2023121e+01 
-1.5144684e-02 5.2712250e-01 4.2060505e+01 
-3.7995064e-01 8.2661813e-01 4.1980038e+01 
2.0541981e-01 4.1251117e-01 4.2130333e+01 
-1.6306458e-01 8.4468329e-01 4.1945896e+01 
-4.3632182e-01 9.6402621e-01 4.1920536e+01 
-1.4500406e-01 6.0625184e-01 4.1961609e+01 
1.3375351e-01 5.6370503e-01 4.1969833e+01 
-2.6623246e-01 7.0021385e-01 4.1881653e+01 
-3.1132740e-01 9.2410773e-01 4.1853493e+01 
-3.9880505e-01 8.5261923e-01 4.1851868e+01 
4.9827534e-01 2.9925787e-01 4.2137547e+01 
3.4194937e-01 3.8685825e-01 4.2025021e+01 
-4.2648647e-02 7.5191063e-01 4.1859051e+01 
-2.5401810e-01 7.9503769e-01 4.1808533e+01 
1.8480448e-02 5.0547802e-01 4.1877510e+01 
-4.3632126e-01 9.6402287e-01 4.1785946e+01 
-1.5947884e-01 8.4443361e-01 4.1780174e+01 
-1.4089009e-01 6.0172999e-01 4.1793541e+01 
-3.1009343e-01 9.2434150e-01 4.1718426e+01 
-4.0306881e-01 8.5845691e-01 4.1716179e+01 
8.5861288e-02 6.1683756e-01 4.1774368e+01 
-2.6447710e-01 6.9743657e-01 4.1711910e+01 
3.0427080e-01 4.1638452e-01 4.1839512e+01 
2.6751360e-01 3.7833902e-01 4.1830902e+01 
5.1012677e-01 2.9080975e-01 4.1931297e+01 
-3.7014309e-02 7.4967718e-01 4.1691463e+01 
-4.3632072e-01 9.6401966e-01 4.1650398e+01 
2.5847588e-02 4.9913955e-01 4.1707767e+01 
-1.5583332e-01 8.4415752e-01 4.1610870e+01 
-3.8322043e-01 8.2981020e-01 4.1595791e+01 
-3.0884841e-01 9.2456430e-01 4.1582397e+01 
-1.3665022e-01 5.9708190e-01 4.1621960e+01 
9.3565010e-02 6.1167872e-01 4.1605015e+01 
-2.6268822e-01 6.9460052e-01 4.1538593e+01 
-4.3632022e-01 9.6401656e-01 4.1513885e+01 
-3.1243213e-02 7.4732590e-01 4.1520226e+01 
2.7603787e-01 3.7115356e-01 4.1624012e+01 
2.8505871e-01 4.3281260e-01 4.1611507e+01 
5.2195001e-01 2.8233302e-01 4.1725052e+01 
3.3468332e-02 4.9260557e-01 4.1534447e+01 
-3.9853087e-01 8.5081697e-01 4.1443768e+01 
-3.2560509e-01 9.3245691e-01 4.1443577e+01 
-1.5212752e-01 8.4385180e-01 4.1437847e+01 
-1.3227913e-01 5.9230179e-01 4.1446728e+01 
-4.3631971e-01 9.6401358e-01 4.1376381e+01 
[...]
POINT_DATA 6166
FIELD FieldData 5
DISPLACEMENT 3 6166  float
2.2789016e-01 2.0775457e-01 -1.8095053e-03 
2.2648385e-01 2.0634231e-01 -1.7929499e-03 
2.2786416e-01 2.0770177e-01 -2.5488939e-03 
2.2784321e-01 2.0773824e-01 -9.5579651e-04 
2.2575621e-01 2.0558618e-01 -2.4888797e-03 
2.2578952e-01 2.0567621e-01 -9.2154881e-04 
2.2506973e-01 2.0492220e-01 -1.7762928e-03 
2.2783343e-01 2.0765311e-01 -3.0419568e-03 
2.2780034e-01 2.0769863e-01 -8.6074288e-04 
2.2640015e-01 2.0621262e-01 -3.0561644e-03 
2.2631975e-01 2.0621207e-01 -8.3455624e-04 
2.2433820e-01 2.0416158e-01 -2.4886406e-03 
2.2421601e-01 2.0409580e-01 -9.0954313e-04 
2.2494258e-01 2.0474775e-01 -3.0705894e-03 
2.2364765e-01 2.0349412e-01 -1.7595334e-03 
2.2780156e-01 2.0761088e-01 -3.3250360e-03 
2.2481482e-01 2.0470110e-01 -8.0794987e-04 
2.2776681e-01 2.0765641e-01 -1.0977791e-03 
2.2560404e-01 2.0540240e-01 -3.3444681e-03 
2.2550328e-01 2.0538385e-01 -1.0556958e-03 
2.2291218e-01 2.0272894e-01 -2.4883545e-03 
2.2276883e-01 2.0264235e-01 -8.9604658e-04 
2.2345996e-01 2.0325772e-01 -3.0852188e-03 
2.2328481e-01 2.0316492e-01 -7.8092463e-04 
2.2221749e-01 2.0205793e-01 -1.7426747e-03 
2.2413288e-01 2.0392382e-01 -3.3603068e-03 
2.2776230e-01 2.0757025e-01 -3.3576037e-03 
2.2398493e-01 2.0385924e-01 -1.0327452e-03 
2.2773354e-01 2.0760506e-01 -1.5946176e-03 
2.2147799e-01 2.0128812e-01 -2.4880103e-03 
2.2144210e-01 2.0130803e-01 -9.3483215e-04 
2.2195151e-01 2.0174176e-01 -3.1000345e-03 
2.2480972e-01 2.0460337e-01 -3.3727607e-03 
2.2263625e-01 2.0241967e-01 -3.3763433e-03 
2.2172894e-01 2.0160280e-01 -7.5348286e-04 
2.2469796e-01 2.0455524e-01 -1.5973832e-03 
2.2606221e-01 2.0586270e-01 -3.3451365e-03 
2.2244106e-01 2.0230904e-01 -1.0095573e-03 
2.2077914e-01 2.0061348e-01 -1.7257263e-03 
2.2602367e-01 2.0587632e-01 -1.8969801e-03 
2.2348642e-01 2.0327304e-01 -3.3968871e-03 
2.2333011e-01 2.0318501e-01 -1.4872239e-03 
2.2771813e-01 2.0752403e-01 -3.4091312e-03 
2.2769868e-01 2.0754506e-01 -2.2874824e-03 
2.2003554e-01 1.9983906e-01 -2.4876343e-03 
2.1999949e-01 1.9985951e-01 -9.1359310e-04 
2.2041643e-01 2.0019907e-01 -3.1150200e-03 
2.2111335e-01 2.0088916e-01 -3.3925527e-03 
2.2014639e-01 2.0001391e-01 -7.2558766e-04 
2.2087090e-01 2.0073247e-01 -9.8608481e-04 
2.1933240e-01 1.9916077e-01 -1.7086293e-03 
2.2181503e-01 2.0159413e-01 -3.3910493e-03 
2.2160959e-01 2.0145354e-01 -1.5706235e-03 
2.2403806e-01 2.0382480e-01 -3.4643505e-03 
2.2599190e-01 2.0578425e-01 -3.5616809e-03 
2.2596389e-01 2.0578377e-01 -2.7964066e-03 
2.2392084e-01 2.0374344e-01 -2.4575985e-03 
2.1856554e-01 1.9841847e-01 -9.2763378e-04 
2.1858464e-01 1.9838156e-01 -2.4871279e-03 
2.1956336e-01 1.9933146e-01 -3.4089065e-03 
2.2044480e-01 2.0021661e-01 -3.4167978e-03 
2.1885385e-01 1.9862880e-01 -3.1301551e-03 
2.2767191e-01 2.0746762e-01 -3.6861748e-03 
2.2766207e-01 2.0747656e-01 -3.1657291e-03 
2.1927364e-01 1.9912870e-01 -9.6241105e-04 
2.2019462e-01 2.0003614e-01 -1.4568926e-03 
2.1853638e-01 1.9839752e-01 -6.9732516e-04 
2.1787727e-01 1.9769956e-01 -1.6914859e-03 
2.2101869e-01 2.0079090e-01 -3.4790987e-03 
2.1712531e-01 1.9691567e-01 -2.4866553e-03 
2.1708904e-01 1.9693731e-01 -8.7056292e-04 
2.1798548e-01 1.9774577e-01 -3.4253730e-03 
2.2080874e-01 2.0061670e-01 -2.4637484e-03 
2.1726297e-01 1.9703019e-01 -3.1453888e-03 
2.1871364e-01 1.9847779e-01 -3.4092199e-03 
2.1764846e-01 1.9749695e-01 -9.3850913e-04 
2.1689799e-01 1.9675267e-01 -6.6853053e-04 
2.1841444e-01 1.9824466e-01 -1.5444253e-03 
2.1641353e-01 1.9622985e-01 -1.6741857e-03 
2.2762880e-01 2.0739469e-01 -4.5058364e-03 
2.2521438e-01 2.0496845e-01 -4.5200954e-03 
2.1565731e-01 1.9544101e-01 -2.4860722e-03 
2.1562098e-01 1.9546333e-01 -8.4877142e-04 
2.1637878e-01 1.9613127e-01 -3.4419235e-03 
2.1712084e-01 1.9687743e-01 -3.4181438e-03 
2.1694948e-01 1.9677727e-01 -1.4269296e-03 
2.1564284e-01 1.9540231e-01 -3.1606797e-03 
2.1599454e-01 1.9583640e-01 -9.1437314e-04 
2.1494105e-01 1.9475141e-01 -1.6567883e-03 
2.2279999e-01 2.0254232e-01 -4.5342636e-03 
2.1754159e-01 1.9729906e-01 -3.4458824e-03 
2.1523045e-01 1.9507867e-01 -6.3934625e-04 
2.1910648e-01 1.9886126e-01 -3.7190400e-03 
2.1911187e-01 1.9888733e-01 -3.1463129e-03 
2.1758848e-01 1.9738135e-01 -2.4729855e-03 
2.1424273e-01 1.9408254e-01 -7.4868201e-04 
2.1418051e-01 1.9395778e-01 -2.4852885e-03 
2.1549881e-01 1.9524789e-01 -3.4269935e-03 
2.1474239e-01 1.9448707e-01 -3.4585637e-03 
2.2038582e-01 2.0011652e-01 -4.5482460e-03 
2.1399264e-01 1.9374432e-01 -3.1762046e-03 
2.1510591e-01 1.9492219e-01 -1.5189832e-03 
2.1431084e-01 1.9414614e-01 -8.8988803e-04 
2.1345982e-01 1.9326428e-01 -1.6392404e-03 
2.1353279e-01 1.9337451e-01 -6.0970377e-04 
2.1669382e-01 1.9643706e-01 -3.7352559e-03 
2.1402563e-01 1.9376716e-01 -3.4557579e-03 
2.1269482e-01 1.9246578e-01 -2.4845034e-03 
2.1268210e-01 1.9251624e-01 -7.1714708e-04 
2.1307537e-01 1.9281222e-01 -3.4752120e-03 
2.1358781e-01 1.9340177e-01 -1.3973429e-03 
2.1797226e-01 1.9769138e-01 -4.5617828e-03 
2.1464883e-01 1.9439112e-01 -3.5097867e-03 
2.1231134e-01 1.9205523e-01 -3.1916972e-03 
2.1196947e-01 1.9176820e-01 -1.6215256e-03 
2.1259661e-01 1.9242530e-01 -8.6533354e-04 
2.1425354e-01 1.9403110e-01 -2.4859535e-03 
2.1180402e-01 1.9163941e-01 -5.7963986e-04 
2.1120004e-01 1.9096476e-01 -2.4835332e-03 
2.1109894e-01 1.9092636e-01 -7.1272027e-04 
2.1216333e-01 1.9189735e-01 -3.4442029e-03 
2.1137677e-01 1.9110581e-01 -3.4918545e-03 
2.1555875e-01 1.9526649e-01 -4.5751901e-03 
2.1047010e-01 1.9026324e-01 -1.6037936e-03 
2.1167679e-01 1.9147915e-01 -1.4942531e-03 
2.1059799e-01 1.9033423e-01 -3.2071501e-03 
2.1085067e-01 1.9067295e-01 -8.4037811e-04 
2.1004336e-01 1.8987243e-01 -5.4925168e-04 
2.0969628e-01 1.8945485e-01 -2.4823649e-03 
2.0965965e-01 1.8947940e-01 -7.5991347e-04 
2.1063368e-01 1.9036011e-01 -3.4742090e-03 
2.1128424e-01 1.9101149e-01 -3.5257027e-03 
2.0964560e-01 1.8936695e-01 -3.5083061e-03 
2.1010216e-01 1.8990242e-01 -1.3681856e-03 
2.0896183e-01 1.8874937e-01 -1.5860816e-03 
2.1314642e-01 1.9284326e-01 -4.5882324e-03 
2.1079649e-01 1.9055854e-01 -2.5026777e-03 
2.0885172e-01 1.8858044e-01 -3.2225361e-03 
2.0907250e-01 1.8888827e-01 -8.1550371e-04 
2.0818636e-01 1.8800004e-01 -7.6674944e-04 
2.0818347e-01 1.8793626e-01 -2.4813144e-03 
2.0824987e-01 1.8807262e-01 -5.1821966e-04 
2.0869978e-01 1.8841891e-01 -3.4602899e-03 
2.0744425e-01 1.8722649e-01 -1.5680760e-03 
2.0788115e-01 1.8759501e-01 -3.5246387e-03 
2.0812003e-01 1.8790874e-01 -1.4707228e-03 
2.0707141e-01 1.8679272e-01 -3.2378638e-03 
2.0726115e-01 1.8707053e-01 -7.9000747e-04 
2.0946121e-01 1.8917184e-01 -3.7818169e-03 
2.1073537e-01 1.9042183e-01 -4.6008462e-03 
2.0666127e-01 1.8640801e-01 -2.4801155e-03 
2.0662449e-01 1.8643369e-01 -7.1478501e-04 
2.0642239e-01 1.8623912e-01 -4.8666855e-04 
2.0711029e-01 1.8682219e-01 -3.4916901e-03 
2.0779015e-01 1.8750283e-01 -3.5416819e-03 
2.0591739e-01 1.8569434e-01 -1.5501502e-03 
2.0608181e-01 1.8578829e-01 -3.5410384e-03 
2.0648544e-01 1.8627247e-01 -1.3398511e-03 
2.0721027e-01 1.8695740e-01 -2.5236048e-03 
2.0524107e-01 1.8504824e-01 -6.2227459e-04 
2.0646884e-01 1.8620914e-01 -2.6346687e-03 
2.0516318e-01 1.8490823e-01 -2.3696146e-03 
2.0525602e-01 1.8496999e-01 -3.2531095e-03 
2.0541479e-01 1.8521820e-01 -7.6468266e-04 
2.0832542e-01 1.8800147e-01 -4.6127317e-03 
2.0455989e-01 1.8437089e-01 -4.5495448e-04 
2.0438133e-01 1.8415335e-01 -1.5320641e-03 
2.0509972e-01 1.8480471e-01 -3.4753659e-03 
2.0424692e-01 1.8394601e-01 -3.5571088e-03 
2.0359688e-01 1.8340003e-01 -5.7410228e-04 
2.0358913e-01 1.8332469e-01 -2.4768107e-03 
2.0442693e-01 1.8420255e-01 -1.4482545e-03 
2.0340455e-01 1.8311138e-01 -3.2684563e-03 
2.0353279e-01 1.8333046e-01 -7.3878194e-04 
2.0283580e-01 1.8260296e-01 -1.5137030e-03 
2.0591696e-01 1.8558356e-01 -4.6241158e-03 
2.0266129e-01 1.8246678e-01 -4.2265066e-04 
2.0420679e-01 1.8390392e-01 -3.6066631e-03 
2.0324616e-01 1.8294404e-01 -3.4824300e-03 
2.0203865e-01 1.8176931e-01 -2.4750833e-03 
2.0237514e-01 1.8206722e-01 -3.5727147e-03 
2.0272847e-01 1.8250304e-01 -1.3124089e-03 
2.0192128e-01 1.8171953e-01 -5.5499614e-04 
2.0348595e-01 1.8321840e-01 -2.5489815e-03 
2.0151575e-01 1.8121567e-01 -3.2833249e-03 
2.0128024e-01 1.8104312e-01 -1.4951098e-03 
2.0161438e-01 1.8140665e-01 -7.1319187e-04 
2.0167617e-01 1.8136986e-01 -3.4589686e-03 
2.0072575e-01 1.8052627e-01 -3.9014526e-04 
2.0047852e-01 1.8020444e-01 -2.4728554e-03 
2.0044108e-01 1.8023209e-01 -6.2276376e-04 
2.0351130e-01 1.8316926e-01 -4.6348288e-03 
2.0224221e-01 1.8192476e-01 -3.8229476e-03 
2.0046580e-01 1.8015116e-01 -3.5878578e-03 
1.9990769e-01 1.7966175e-01 -1.6278366e-03 
2.0058957e-01 1.8035325e-01 -1.4273392e-03 
1.9971552e-01 1.7947458e-01 -1.4764499e-03 
1.9958895e-01 1.7928278e-01 -3.2971352e-03 
1.9965880e-01 1.7944594e-01 -6.8794447e-04 
1.9890897e-01 1.7863062e-01 -2.4705268e-03 
1.9886698e-01 1.7865375e-01 -6.2407280e-04 
1.9942564e-01 1.7911102e-01 -3.4937740e-03 
1.9875231e-01 1.7854853e-01 -3.5753980e-04 
2.0009701e-01 1.7977689e-01 -3.7040664e-03 
1.9998597e-01 1.7969690e-01 -2.8323657e-03 
2.0110676e-01 1.8075588e-01 -4.6444368e-03 
1.9851810e-01 1.7819726e-01 -3.6023248e-03 
1.9814137e-01 1.7789695e-01 -1.4582711e-03 
1.9861479e-01 1.7837332e-01 -1.4181270e-03 
1.9762327e-01 1.7731121e-01 -3.3107984e-03 
1.9745836e-01 1.7724574e-01 -5.0625380e-04 
1.9733059e-01 1.7704843e-01 -2.4675475e-03 
1.9766439e-01 1.7744757e-01 -6.6170079e-04 
1.9745770e-01 1.7713745e-01 -3.4992085e-03 
1.9674051e-01 1.7653282e-01 -3.2426574e-04 
1.9655874e-01 1.7631072e-01 -1.4398345e-03 
1.9653021e-01 1.7620413e-01 -3.6162357e-03 
1.9758040e-01 1.7728524e-01 -2.8200152e-03 
1.9745634e-01 1.7713121e-01 -3.6402130e-03 
1.9870596e-01 1.7834772e-01 -4.6530790e-03 
1.9660090e-01 1.7635499e-01 -1.4089233e-03 
1.9570524e-01 1.7548625e-01 -5.5346114e-04 
1.9572589e-01 1.7544378e-01 -2.3454789e-03 
1.9561690e-01 1.7530017e-01 -3.3244586e-03 
1.9563095e-01 1.7541058e-01 -6.3603796e-04 
1.9496576e-01 1.7471498e-01 -1.4207804e-03 
1.9572952e-01 1.7540626e-01 -3.4772474e-03 
1.9468848e-01 1.7447773e-01 -2.9100198e-04 
1.9450173e-01 1.7417100e-01 -3.6296265e-03 
1.9414516e-01 1.7385636e-01 -2.4620101e-03 
1.9410665e-01 1.7388594e-01 -5.2996032e-04 
1.9454713e-01 1.7429753e-01 -1.4004522e-03 
1.9529156e-01 1.7498907e-01 -2.8853572e-03 
1.9630921e-01 1.7594467e-01 -4.6610851e-03 
1.9356957e-01 1.7324844e-01 -3.3374424e-03 
1.9493687e-01 1.7460388e-01 -3.7111191e-03 
1.9336292e-01 1.7311050e-01 -1.4009718e-03 
1.9355686e-01 1.7333384e-01 -6.1026326e-04 
1.9360927e-01 1.7328233e-01 -3.4766169e-03 
1.9253734e-01 1.7224659e-01 -2.4584725e-03 
1.9249871e-01 1.7227724e-01 -5.0626713e-04 
1.9259536e-01 1.7238265e-01 -2.5708787e-04 
1.9243100e-01 1.7209651e-01 -3.6424960e-03 
1.9245221e-01 1.7219992e-01 -1.3924995e-03 
1.9175042e-01 1.7149718e-01 -1.3817846e-03 
1.9300139e-01 1.7269835e-01 -2.8017764e-03 
1.9391689e-01 1.7354721e-01 -4.6677883e-03 
1.9147916e-01 1.7115486e-01 -3.3499005e-03 
1.9144076e-01 1.7121623e-01 -5.8435590e-04 
1.9261317e-01 1.7227569e-01 -3.7367167e-03 
1.9091998e-01 1.7062755e-01 -2.4545605e-03 
1.9088152e-01 1.7065915e-01 -4.8259119e-04 
1.9140638e-01 1.7107661e-01 -3.4799385e-03 
1.9045952e-01 1.7024629e-01 -2.2280314e-04 
1.9012851e-01 1.6987422e-01 -1.3629528e-03 
1.9031645e-01 1.6997953e-01 -3.6546383e-03 
1.9031455e-01 1.7006062e-01 -1.3850926e-03 
1.8929344e-01 1.6900006e-01 -2.4505893e-03 
1.8925448e-01 1.6903138e-01 -4.5829831e-04 
1.8934427e-01 1.6901833e-01 -3.3621008e-03 
1.9152929e-01 1.7115580e-01 -4.6731737e-03 
1.8928128e-01 1.6905662e-01 -5.5840897e-04 
1.9029851e-01 1.6999574e-01 -2.7172514e-03 
1.9030841e-01 1.6996728e-01 -3.7654506e-03 
1.8849641e-01 1.6824219e-01 -1.3429668e-03 
1.8916866e-01 1.6883719e-01 -3.4822617e-03 
1.8827975e-01 1.6806737e-01 -1.8863849e-04 
1.8815719e-01 1.6781904e-01 -3.6655085e-03 
1.8845826e-01 1.6819833e-01 -1.5315434e-03 
1.8765573e-01 1.6736257e-01 -2.4463905e-03 
1.8761754e-01 1.6739585e-01 -4.3546490e-04 
1.8716410e-01 1.6683771e-01 -3.3729142e-03 
1.8914635e-01 1.6877006e-01 -4.6793912e-03 
1.8685474e-01 1.6660208e-01 -1.3247340e-03 
1.8707789e-01 1.6685425e-01 -5.3241488e-04 
1.8797299e-01 1.6763078e-01 -3.7638228e-03 
1.8770383e-01 1.6739346e-01 -2.8935913e-03 
1.8692772e-01 1.6659576e-01 -3.4843900e-03 
1.8600941e-01 1.6571733e-01 -2.4428635e-03 
1.8597017e-01 1.6575061e-01 -4.1207997e-04 
1.8605582e-01 1.6584533e-01 -1.5320403e-04 
1.8595205e-01 1.6561414e-01 -3.6752853e-03 
1.8623124e-01 1.6596825e-01 -1.6271397e-03 
1.8520263e-01 1.6495170e-01 -1.3056956e-03 
1.8493848e-01 1.6461253e-01 -3.3828188e-03 
1.8485481e-01 1.6459675e-01 -1.5074953e-03 
1.8676893e-01 1.6639233e-01 -4.6837865e-03 
1.8482915e-01 1.6460799e-01 -5.0642295e-04 
1.8566611e-01 1.6532519e-01 -3.7273769e-03 
1.8435267e-01 1.6406226e-01 -2.4370791e-03 
1.8431279e-01 1.6409504e-01 -3.8796518e-04 
1.8466850e-01 1.6433759e-01 -3.4890845e-03 
1.8534224e-01 1.6502945e-01 -2.9710606e-03 
1.8378547e-01 1.6357853e-01 -1.1841198e-04 
1.8354093e-01 1.6329223e-01 -1.2852623e-03 
1.8369943e-01 1.6336320e-01 -3.6844120e-03 
1.8392508e-01 1.6366439e-01 -1.6344851e-03 
1.8268538e-01 1.6239724e-01 -2.4325713e-03 
1.8264677e-01 1.6243206e-01 -3.6444908e-04 
1.8266253e-01 1.6233999e-01 -3.3913632e-03 
1.8439558e-01 1.6401960e-01 -4.6874448e-03 
1.8253332e-01 1.6231638e-01 -4.8071920e-04 
1.8334587e-01 1.6300690e-01 -3.7237862e-03 
1.8186896e-01 1.6162394e-01 -1.2662687e-03 
1.8237726e-01 1.6204956e-01 -3.4913132e-03 
1.8302740e-01 1.6271321e-01 -3.0766253e-03 
1.8145759e-01 1.6118732e-01 -2.0184354e-03 
1.8146722e-01 1.6126609e-01 -8.2002422e-05 
1.8139739e-01 1.6106495e-01 -3.6919119e-03 
1.8100849e-01 1.6072486e-01 -2.4278301e-03 
1.8154380e-01 1.6128552e-01 -1.6883907e-03 
1.8075663e-01 1.6055007e-01 -2.5468491e-04 
1.8033810e-01 1.6002022e-01 -3.3996555e-03 
1.8018605e-01 1.5994634e-01 -1.2464157e-03 
1.8203001e-01 1.6165744e-01 -4.6891659e-03 
1.8019181e-01 1.5997699e-01 -5.7751249e-04 
1.8095036e-01 1.6061762e-01 -3.6939234e-03 
1.8013516e-01 1.5981136e-01 -3.5064113e-03 
1.8078825e-01 1.6047086e-01 -3.2931247e-03 
1.7932636e-01 1.5904789e-01 -2.4150657e-03 
1.7928720e-01 1.5908270e-01 -3.1914076e-04 
1.7910026e-01 1.5890639e-01 -4.5969016e-05 
1.7905639e-01 1.5873025e-01 -3.6973972e-03 
1.7850524e-01 1.5827087e-01 -1.2271885e-03 
1.7870642e-01 1.5845492e-01 -1.7073859e-03 
1.7798167e-01 1.5767117e-01 -3.4068604e-03 
1.7967342e-01 1.5930670e-01 -4.6886173e-03 
1.7765144e-01 1.5737812e-01 -2.3973547e-03 
1.7761338e-01 1.5741405e-01 -3.0091187e-04 
1.7782921e-01 1.5762718e-01 -4.1018389e-04 
1.7843510e-01 1.5812418e-01 -3.2950859e-03 
1.7807972e-01 1.5775488e-01 -3.7045430e-03 
1.7737469e-01 1.5706043e-01 -3.5034451e-03 
1.7683609e-01 1.5660727e-01 -1.2088065e-03 
1.7674457e-01 1.5655938e-01 -8.9607674e-06 
1.7672162e-01 1.5640305e-01 -3.7046240e-03 
1.7652071e-01 1.5629271e-01 -1.2730047e-03 
1.7598923e-01 1.5572250e-01 -2.3785394e-03 
1.7584687e-01 1.5565728e-01 -1.8727376e-04 
1.7566459e-01 1.5536168e-01 -3.4128877e-03 
1.7732266e-01 1.5696380e-01 -4.6875402e-03 
1.7549153e-01 1.5530017e-01 -3.6267017e-04 
1.7517862e-01 1.5495692e-01 -1.1893627e-03 
1.7540722e-01 1.5509923e-01 -3.5177318e-03 
1.7590056e-01 1.5562151e-01 -2.6986699e-03 
1.7609292e-01 1.5576871e-01 -3.9053932e-03 
1.7519009e-01 1.5488300e-01 -3.5162419e-03 
1.7442447e-01 1.5424982e-01 2.5312915e-05 
1.7433736e-01 1.5407832e-01 -2.3591237e-03 
1.7430018e-01 1.5411460e-01 -2.6547830e-04 
1.7442577e-01 1.5411495e-01 -3.7093495e-03 
1.7420308e-01 1.5398717e-01 -1.2021635e-03 
1.7353350e-01 1.5332013e-01 -1.1708969e-03 
1.7338626e-01 1.5309238e-01 -3.4159662e-03 
1.7497927e-01 1.5462995e-01 -4.6884031e-03 
1.7319059e-01 1.5301117e-01 -3.1726656e-04 
1.7283355e-01 1.5266015e-01 -1.2789360e-04 
1.7269978e-01 1.5244928e-01 -2.3387312e-03 
1.7313343e-01 1.5283403e-01 -3.5243367e-03 
1.7375304e-01 1.5343815e-01 -3.9059308e-03 
1.7374589e-01 1.5345316e-01 -3.2970647e-03 
1.7214084e-01 1.5197800e-01 5.8735503e-05 
1.7289004e-01 1.5263976e-01 -2.2440655e-03 
1.7216791e-01 1.5186767e-01 -3.7122702e-03 
1.7190193e-01 1.5169649e-01 -1.1517669e-03 
1.7252702e-01 1.5223081e-01 -3.5129336e-03 
1.7192245e-01 1.5172018e-01 -1.1339415e-03 
1.7107345e-01 1.5083106e-01 -2.3191543e-03 
1.7114523e-01 1.5086314e-01 -3.4188698e-03 
1.7263907e-01 1.5229923e-01 -4.6841223e-03 
1.7092578e-01 1.5076001e-01 -2.7354548e-04 
1.7072186e-01 1.5056092e-01 -7.9623300e-05 
1.7089778e-01 1.5061010e-01 -3.5298585e-03 
1.7027999e-01 1.5008511e-01 -1.1337128e-03 
1.7141785e-01 1.5111224e-01 -3.9055122e-03 
1.7140998e-01 1.5112671e-01 -3.2973920e-03 
1.6989242e-01 1.4974421e-01 9.1339149e-05 
1.6994771e-01 1.4966033e-01 -3.7136967e-03 
1.6945812e-01 1.4922707e-01 -2.2979467e-03 
1.6942215e-01 1.4926377e-01 -2.1439453e-04 
1.7018110e-01 1.4995262e-01 -2.0626541e-03 
1.7019966e-01 1.4991614e-01 -3.5065482e-03 
1.6967775e-01 1.4949134e-01 -1.0685009e-03 
1.6905089e-01 1.4886400e-01 -1.1248948e-03 
1.6894262e-01 1.4867440e-01 -3.4195697e-03 
1.6867149e-01 1.4848708e-01 -1.1159815e-03 
1.7030749e-01 1.4997871e-01 -4.6792389e-03 
1.6855125e-01 1.4841025e-01 7.5683143e-05 
1.6869713e-01 1.4854659e-01 -2.3198794e-04 
1.6870023e-01 1.4842594e-01 -3.5341044e-03 
1.6909294e-01 1.4880145e-01 -3.9030167e-03 
1.6908421e-01 1.4881551e-01 -3.2965913e-03 
1.6785657e-01 1.4763796e-01 -2.2765324e-03 
1.6781889e-01 1.4767256e-01 -1.9873295e-04 
1.6774622e-01 1.4754918e-01 -1.6560698e-03 
1.6767868e-01 1.4754677e-01 1.2124876e-04 
1.6774005e-01 1.4753275e-01 -1.9518822e-03 
1.6776669e-01 1.4749329e-01 -3.7122979e-03 
1.6786228e-01 1.4765055e-01 -2.0661594e-03 
1.6788237e-01 1.4761488e-01 -3.4987840e-03 
1.6747007e-01 1.4730100e-01 -1.0073199e-03 
1.6707590e-01 1.4690410e-01 -1.0966214e-03 
1.6695561e-01 1.4682719e-01 9.0511588e-05 
1.6677710e-01 1.4652467e-01 -3.4161205e-03 
1.6639882e-01 1.4626125e-01 -2.6139829e-04 
1.6650206e-01 1.4636998e-01 -1.9113267e-04 
1.6798614e-01 1.4767288e-01 -4.6726256e-03 
1.6634910e-01 1.4618260e-01 -1.1069643e-03 
1.6626745e-01 1.4606099e-01 -2.2543711e-03 
1.6654164e-01 1.4628349e-01 -3.5388784e-03 
1.6677816e-01 1.4650449e-01 -3.8992469e-03 
1.6676871e-01 1.4651810e-01 -3.2944987e-03 
1.6549373e-01 1.4533520e-01 -1.0797185e-03 
1.6550159e-01 1.4538860e-01 1.5096625e-04 
1.6561942e-01 1.4536376e-01 -3.7095319e-03 
1.6529618e-01 1.4514738e-01 -9.4352540e-04 
1.6555358e-01 1.4535920e-01 -2.0713767e-03 
1.6557477e-01 1.4532566e-01 -3.4921498e-03 
1.6469206e-01 1.4449959e-01 -2.2334377e-03 
1.6471207e-01 1.4455770e-01 -1.1786504e-03 
1.6465457e-01 1.4453571e-01 -1.6903334e-04 
1.6464761e-01 1.4441240e-01 -3.4140528e-03 
1.6434239e-01 1.4422926e-01 -1.5226100e-04 
1.6567558e-01 1.4538057e-01 -4.6639815e-03 
1.6441768e-01 1.4417683e-01 -3.5398044e-03 
1.6392341e-01 1.4377971e-01 -1.0610397e-03 
1.6380423e-01 1.4370383e-01 1.2449415e-04 
1.6345353e-01 1.4327875e-01 -2.0274285e-03 
1.6351126e-01 1.4327337e-01 -3.7054904e-03 
1.6335729e-01 1.4326416e-01 1.7898051e-04 
1.6447425e-01 1.4421952e-01 -3.8938255e-03 
1.6446416e-01 1.4423248e-01 -3.2906486e-03 
1.6321038e-01 1.4306994e-01 -1.1565852e-03 
1.6318166e-01 1.4301944e-01 -1.7842449e-03 
1.6312702e-01 1.4295022e-01 -2.2117808e-03 
1.6309060e-01 1.4298736e-01 -1.5355130e-04 
1.6315563e-01 1.4302877e-01 -8.8431203e-04 
1.6325372e-01 1.4308070e-01 -2.0729413e-03 
1.6327596e-01 1.4304805e-01 -3.4829974e-03 
1.6255474e-01 1.4233905e-01 -3.4090627e-03 
1.6236481e-01 1.4223780e-01 -1.0436277e-03 
1.6224681e-01 1.4216302e-01 1.3961273e-04 
1.6221888e-01 1.4212874e-01 -1.1557536e-04 
1.6232835e-01 1.4210664e-01 -3.5429229e-03 
1.6337484e-01 1.4309998e-01 -4.6536876e-03 
1.6157447e-01 1.4141442e-01 -2.1901743e-03 
1.6153967e-01 1.4145271e-01 -1.3845542e-04 
1.6141614e-01 1.4127597e-01 -1.6539405e-03 
1.6143768e-01 1.4122075e-01 -3.7002494e-03 
1.6124673e-01 1.4117643e-01 2.0851048e-04 
1.6217873e-01 1.4194548e-01 -3.8869155e-03 
1.6216819e-01 1.4195800e-01 -3.2855440e-03 
1.6081837e-01 1.4070806e-01 -1.0280568e-03 