# vtk DataFile Version 4.0
vtk output
ASCII
DATASET UNSTRUCTURED_GRID
POINTS 6166 float
-4.3633327e-01 9.6409470e-01 4.4200001e+01 
-4.3633261e-01 9.6409082e-01 4.4079685e+01 
-3.2145375e-01 9.1276109e-01 4.4200001e+01 
-3.8566181e-01 8.4097892e-01 4.4200001e+01 
-3.3069235e-01 9.1895354e-01 4.4019413e+01 
-3.8473952e-01 8.3919770e-01 4.4024357e+01 
-4.3633196e-01 9.6408689e-01 4.3958702e+01 
-2.1293370e-01 8.4677851e-01 4.4200001e+01 
-2.9042658e-01 7.3813015e-01 4.4200001e+01 
-2.1019450e-01 8.4669626e-01 4.4077393e+01 
-2.8909999e-01 7.3605996e-01 4.4073399e+01 
-3.2963324e-01 9.1929907e-01 4.3898094e+01 
-3.8679782e-01 8.4179753e-01 4.3889645e+01 
-2.0740938e-01 8.4661204e-01 4.3952713e+01 
-4.3633130e-01 9.6408290e-01 4.3837040e+01 
-1.1677200e-01 7.7521002e-01 4.4200001e+01 
-2.8775173e-01 7.3395580e-01 4.3944717e+01 
-1.9365783e-01 6.6203654e-01 4.4200001e+01 
-1.1309985e-01 7.7540898e-01 4.4012005e+01 
-1.9181472e-01 6.5888047e-01 4.4006447e+01 
-3.2856464e-01 9.1964108e-01 4.3776085e+01 
-3.8823184e-01 8.4352189e-01 4.3765770e+01 
-2.0457739e-01 8.4652513e-01 4.3825886e+01 
-2.8638119e-01 7.3181647e-01 4.3813885e+01 
-4.3633065e-01 9.6407896e-01 4.3714680e+01 
-1.0911675e-01 7.7426714e-01 4.3886200e+01 
-2.1001574e-02 6.8269837e-01 4.4200001e+01 
-1.8902887e-01 6.5566909e-01 4.3876659e+01 
-7.8887597e-02 5.9015810e-01 4.4200001e+01 
-3.2748649e-01 9.1997939e-01 4.3653378e+01 
-3.9889076e-01 8.5876143e-01 4.3651733e+01 
-2.0169757e-01 8.4643483e-01 4.3696846e+01 
-7.2496021e-03 6.7325598e-01 4.3947758e+01 
-1.0504345e-01 7.7307969e-01 4.3758209e+01 
-2.8498772e-01 7.2964084e-01 4.3680840e+01 
-6.3224643e-02 5.7783771e-01 4.3940754e+01 
3.5808440e-02 6.2679136e-01 4.4056572e+01 
-1.8616955e-01 6.5238589e-01 4.3744686e+01 
-4.3632996e-01 9.6407503e-01 4.3591618e+01 
-9.8678423e-03 5.4892725e-01 4.4055367e+01 
-1.8652271e-02 6.8798620e-01 4.3834026e+01 
-7.9845116e-02 5.8636194e-01 4.3823372e+01 
8.7777540e-02 5.7885915e-01 4.4200001e+01 
5.3622175e-02 5.1732427e-01 4.4200001e+01 
-3.2639861e-01 9.2031354e-01 4.3529953e+01 
-3.9894739e-01 8.5844576e-01 4.3528313e+01 
-1.9876897e-01 8.4634024e-01 4.3565521e+01 
-1.0087753e-01 7.7184403e-01 4.3627972e+01 
-2.8357074e-01 7.2742778e-01 4.3545506e+01 
-1.8323407e-01 6.4902818e-01 4.3610458e+01 
-4.3632931e-01 9.6407109e-01 4.3467831e+01 
3.1033519e-03 6.6751039e-01 4.3691772e+01 
-5.3600248e-02 5.6906003e-01 4.3676846e+01 
1.2436585e-01 5.5082864e-01 4.3886215e+01 
1.7079005e-01 5.1095647e-01 4.4054855e+01 
1.4951277e-01 4.6697062e-01 4.4053665e+01 
1.0028158e-01 4.8915190e-01 4.3877911e+01 
-4.0513036e-01 8.6722642e-01 4.3405304e+01 
-3.2530096e-01 9.2064321e-01 4.3405800e+01 
-9.6616447e-02 7.7055699e-01 4.3495411e+01 
-8.4563000e-03 6.8258613e-01 4.3574005e+01 
-1.9579062e-01 8.4624058e-01 4.3431831e+01 
2.1753120e-01 4.7335833e-01 4.4200001e+01 
2.0360756e-01 4.4289169e-01 4.4200001e+01 
-1.8021962e-01 6.4559317e-01 4.3473904e+01 
-7.0636064e-02 5.7773441e-01 4.3555408e+01 
-2.8212959e-01 7.2517604e-01 4.3407806e+01 
-4.3632865e-01 9.6406716e-01 4.3343307e+01 
1.3810426e-01 5.4143524e-01 4.3628246e+01 
-3.2419339e-01 9.2096806e-01 4.3280907e+01 
-3.9903235e-01 8.5775709e-01 4.3279266e+01 
-9.2257597e-02 7.6921552e-01 4.3360443e+01 
1.1508528e-01 4.7804743e-01 4.3612068e+01 
-1.9276154e-01 8.4613472e-01 4.3295704e+01 
1.4013666e-02 6.6131532e-01 4.3426643e+01 
-1.7712323e-01 6.4207786e-01 4.3334946e+01 
-2.8066361e-01 7.2288430e-01 4.3267666e+01 
-4.3382257e-02 5.5983055e-01 4.3403778e+01 
-4.3632799e-01 9.6406323e-01 4.3218033e+01 
3.7877345e-01 3.8273901e-01 4.4200001e+01 
3.9076596e-01 3.7443376e-01 4.3993755e+01 
-3.2307580e-01 9.2128778e-01 4.3155251e+01 
-3.9906058e-01 8.5738426e-01 4.3153610e+01 
-8.7798268e-02 7.6781619e-01 4.3222996e+01 
1.9689407e-02 6.5803534e-01 4.3290459e+01 
-6.0862999e-02 5.6866169e-01 4.3278019e+01 
-1.8968078e-01 8.4602165e-01 4.3157055e+01 
-1.7394182e-01 6.3847917e-01 4.3193501e+01 
-4.3632734e-01 9.6405929e-01 4.3091995e+01 
4.0275589e-01 3.6612594e-01 4.3787510e+01 
1.2304078e-01 5.5709994e-01 4.3330139e+01 
-2.7917209e-01 7.2055119e-01 4.3125000e+01 
2.5336364e-01 4.4907436e-01 4.3468094e+01 
2.3670304e-01 4.1684708e-01 4.3469433e+01 
1.3086085e-01 4.6634668e-01 4.3336948e+01 
-3.8351217e-01 8.3473074e-01 4.3036392e+01 
-3.2194808e-01 9.2160189e-01 4.3028820e+01 
2.5518833e-02 6.5462554e-01 4.3151749e+01 
-8.3235659e-02 7.6635528e-01 4.3082981e+01 
4.1474071e-01 3.5781288e-01 4.3581264e+01 
-1.8654740e-01 8.4590012e-01 4.3015797e+01 
-3.2522827e-02 5.5011308e-01 4.3120937e+01 
-1.7067213e-01 6.3479382e-01 4.3049488e+01 
-4.3632668e-01 9.6405542e-01 4.2965172e+01 
-2.7765438e-01 7.1817529e-01 4.2979721e+01 
2.6620242e-01 4.4011977e-01 4.3261948e+01 
1.3584816e-02 6.7044950e-01 4.3025066e+01 
-3.2081014e-01 9.2191011e-01 4.2901604e+01 
-3.8160574e-01 8.3169121e-01 4.2902863e+01 
-7.8566879e-02 7.6482886e-01 4.2940315e+01 
-5.0480481e-02 5.5910730e-01 4.2990566e+01 
4.2671782e-01 3.4949207e-01 4.3375019e+01 
1.6821145e-01 5.2049083e-01 4.3083881e+01 
-1.8336046e-01 8.4576881e-01 4.2871841e+01 
-4.3632606e-01 9.6405160e-01 4.2837555e+01 
-1.6731077e-01 6.3101834e-01 4.2902817e+01 
1.4768846e-01 4.5400122e-01 4.3051926e+01 
-2.7610970e-01 7.1575516e-01 4.2831745e+01 
-3.1966189e-01 9.2221189e-01 4.2773579e+01 
-3.8560396e-01 8.3684862e-01 4.2767078e+01 
3.7660085e-02 6.4738947e-01 4.2866421e+01 
-7.3788933e-02 7.6323271e-01 4.2794899e+01 
4.3868470e-01 3.4116083e-01 4.3168777e+01 
-4.3632543e-01 9.6404779e-01 4.2709122e+01 
-2.0968946e-02 5.3986710e-01 4.2827656e+01 
-1.8011902e-01 8.4562629e-01 4.2725094e+01 
-1.6385415e-01 6.2714905e-01 4.2753403e+01 
-2.7453732e-01 7.1328926e-01 4.2680973e+01 
-3.1850323e-01 9.2250693e-01 4.2644733e+01 
-3.9907700e-01 8.5570478e-01 4.2643101e+01 
2.5504474e-02 6.6361672e-01 4.2734810e+01 
1.8471870e-01 5.0880390e-01 4.2796177e+01 
-6.8898737e-02 7.6156229e-01 4.2646645e+01 
-3.9438177e-02 5.4903054e-01 4.2692345e+01 
-4.3632481e-01 9.6404403e-01 4.2579861e+01 
4.5063871e-01 3.3281663e-01 4.2962532e+01 
1.6565691e-01 4.4095638e-01 4.2756321e+01 
-1.7682223e-01 8.4547096e-01 4.2575459e+01 
-1.6029853e-01 6.2318206e-01 4.2601143e+01 
-4.0415615e-01 8.6278629e-01 4.2516582e+01 
-3.1733403e-01 9.2279470e-01 4.2515053e+01 
-2.7293649e-01 7.1077597e-01 4.2527313e+01 
5.0482783e-02 6.3954860e-01 4.2569923e+01 
-4.3632418e-01 9.6404034e-01 4.2449757e+01 
-6.3893095e-02 7.5981271e-01 4.2495445e+01 
-8.6617703e-03 5.2904755e-01 4.2523201e+01 
-1.7346917e-01 8.4530097e-01 4.2422829e+01 
-1.5663996e-01 6.1911333e-01 4.2445942e+01 
3.0435190e-01 4.1341871e-01 4.2643494e+01 
4.6257737e-01 3.2445681e-01 4.2756287e+01 
-3.1615424e-01 9.2307472e-01 4.2384518e+01 
-3.9902648e-01 8.5475212e-01 4.2382885e+01 
-2.7130640e-01 7.0821363e-01 4.2370659e+01 
3.8079392e-02 6.5619886e-01 4.2433029e+01 
2.0230262e-01 4.9620378e-01 4.2497147e+01 
-4.3632355e-01 9.6403670e-01 4.2318787e+01 
-5.8768708e-02 7.5797862e-01 4.2341198e+01 
-2.7680276e-02 5.3838593e-01 4.2382599e+01 
1.8486446e-01 4.2715022e-01 4.2449394e+01 
-3.8436696e-01 8.3356136e-01 4.2264896e+01 
8.9545198e-02 5.3233254e-01 4.2382050e+01 
-3.3225983e-01 9.3122375e-01 4.2255634e+01 
-1.7005907e-01 8.4511453e-01 4.2267101e+01 
-1.5287429e-01 6.1493850e-01 4.2287693e+01 
4.7449806e-01 3.1607881e-01 4.2550037e+01 
-2.6964626e-01 7.0560038e-01 4.2210907e+01 
-4.3632296e-01 9.6403313e-01 4.2186939e+01 
6.4036883e-02 6.3103610e-01 4.2261456e+01 
-5.3522192e-02 7.5605446e-01 4.2183796e+01 
-3.7873057e-01 8.2541841e-01 4.2124020e+01 
-3.1376252e-01 9.2360973e-01 4.2120819e+01 
4.4639236e-03 5.1760370e-01 4.2206776e+01 
-1.6659111e-01 8.4490943e-01 4.2108162e+01 
-1.4899719e-01 6.1065292e-01 4.2126286e+01 
-4.3632239e-01 9.6402961e-01 4.2054195e+01 
4.8639825e-01 3.0768004e-01 4.2343792e+01 
-2.6795524e-01 7.0293444e-01 4.2047943e+01 
2.4746621e-01 4.6040925e-01 4.2191032e+01 
7.1105182e-02 6.2650448e-01 4.2102463e+01 
-3.1255043e-01 9.2386365e-01 4.1987617e+01 
-4.8150036e-02 7.5403398e-01 4.2023121e+01 
-1.5144684e-02 5.2712250e-01 4.2060505e+01 
-3.7995064e-01 8.2661813e-01 4.1980038e+01 
2.0541981e-01 4.1251117e-01 4.2130333e+01 
-1.6306458e-01 8.4468329e-01 4.1945896e+01 
-4.3632182e-01 9.6402621e-01 4.1920536e+01 
-1.4500406e-01 6.0625184e-01 4.1961609e+01 
1.3375351e-01 5.6370503e-01 4.1969833e+01 
-2.6623246e-01 7.0021385e-01 4.1881653e+01 
-3.1132740e-01 9.2410773e-01 4.1853493e+01 
-3.9880505e-01 8.5261923e-01 4.1851868e+01 
4.9827534e-01 2.9925787e-01 4.2137547e+01 
3.4194937e-01 3.8685825e-01 4.2025021e+01 
-4.2648647e-02 7.5191063e-01 4.1859051e+01 
-2.5401810e-01 7.9503769e-01 4.1808533e+01 
1.8480448e-02 5.0547802e-01 4.1877510e+01 
-4.3632126e-01 9.6402287e-01 4.1785946e+01 
-1.5947884e-01 8.4443361e-01 4.1780174e+01 
-1.4089009e-01 6.0172999e-01 4.1793541e+01 
-3.1009343e-01 9.2434150e-01 4.1718426e+01 
-4.0306881e-01 8.5845691e-01 4.1716179e+01 
8.5861288e-02 6.1683756e-01 4.1774368e+01 
-2.6447710e-01 6.9743657e-01 4.1711910e+01 
3.0427080e-01 4.1638452e-01 4.1839512e+01 
2.6751360e-01 3.7833902e-01 4.1830902e+01 
5.1012677e-01 2.9080975e-01 4.1931297e+01 
-3.7014309e-02 7.4967718e-01 4.1691463e+01 
-4.3632072e-01 9.6401966e-01 4.1650398e+01 
2.5847588e-02 4.9913955e-01 4.1707767e+01 
-1.5583332e-01 8.4415752e-01 4.1610870e+01 
-3.8322043e-01 8.2981020e-01 4.1595791e+01 
-3.0884841e-01 9.2456430e-01 4.1582397e+01 
-1.3665022e-01 5.9708190e-01 4.1621960e+01 
9.3565010e-02 6.1167872e-01 4.1605015e+01 
-2.6268822e-01 6.9460052e-01 4.1538593e+01 
-4.3632022e-01 9.6401656e-01 4.1513885e+01 
-3.1243213e-02 7.4732590e-01 4.1520226e+01 
2.7603787e-01 3.7115356e-01 4.1624012e+01 
2.8505871e-01 4.3281260e-01 4.1611507e+01 
5.2195001e-01 2.8233302e-01 4.1725052e+01 
3.3468332e-02 4.9260557e-01 4.1534447e+01 
-3.9853087e-01 8.5081697e-01 4.1443768e+01 
-3.2560509e-01 9.3245691e-01 4.1443577e+01 
-1.5212752e-01 8.4385180e-01 4.1437847e+01 
-1.3227913e-01 5.9230179e-01 4.1446728e+01 
-4.3631971e-01 9.6401358e-01 4.1376381e+01 
[...]
POINT_DATA 6166
FIELD FieldData 5
DISPLACEMENT 3 6166  float
-6.2624532e-01 -5.7407361e-01 -1.4442234e-02 
-6.2231588e-01 -5.7011467e-01 -1.4312875e-02 
-6.2617421e-01 -5.7387251e-01 -1.2368311e-02 
-6.2595427e-01 -5.7393038e-01 -1.6826751e-02 
-6.2028754e-01 -5.6794769e-01 -1.2272994e-02 
-6.2021381e-01 -5.6814855e-01 -1.6666040e-02 
-6.1836463e-01 -5.6613374e-01 -1.4182825e-02 
-6.2606186e-01 -5.7367295e-01 -1.0983569e-02 
-6.2573946e-01 -5.7373089e-01 -1.7087322e-02 
-6.2205899e-01 -5.6963450e-01 -1.0764692e-02 
-6.2160015e-01 -5.6956202e-01 -1.6975647e-02 
-6.1632669e-01 -5.6395423e-01 -1.2096481e-02 
-6.1581993e-01 -5.6372035e-01 -1.6503070e-02 
-6.1798823e-01 -5.6552768e-01 -1.0542172e-02 
-6.1439109e-01 -5.6213033e-01 -1.4052070e-02 
-6.2592840e-01 -5.7348901e-01 -1.0186700e-02 
-6.1739284e-01 -5.6532460e-01 -1.6862113e-02 
-6.2559462e-01 -5.7354361e-01 -1.6419156e-02 
-6.1979127e-01 -5.6729776e-01 -9.8577049e-03 
-6.1926633e-01 -5.6717044e-01 -1.6254166e-02 
-6.1234343e-01 -5.5993825e-01 -1.1919098e-02 
-6.1177796e-01 -5.5964738e-01 -1.6360065e-02 
-6.1384749e-01 -5.6135029e-01 -1.0315949e-02 
-6.1311543e-01 -5.6101650e-01 -1.6746631e-02 
-6.1039490e-01 -5.5810416e-01 -1.3920584e-02 
-6.1568177e-01 -5.6315160e-01 -9.6295215e-03 
-6.2574059e-01 -5.7329422e-01 -1.0090375e-02 
-6.1502081e-01 -5.6289387e-01 -1.6128719e-02 
-6.2547022e-01 -5.7333136e-01 -1.5023488e-02 
-6.0833734e-01 -5.5589926e-01 -1.1740860e-02 
-6.0808742e-01 -5.5591941e-01 -1.6085755e-02 
-6.0963458e-01 -5.5710018e-01 -1.0085979e-02 
-6.1748570e-01 -5.6496853e-01 -9.6789952e-03 
-6.1150104e-01 -5.5893368e-01 -9.3976194e-03 
-6.0876566e-01 -5.5663568e-01 -1.6629096e-02 
-6.1698031e-01 -5.6477082e-01 -1.4636419e-02 
-6.2094235e-01 -5.6845874e-01 -9.9127321e-03 
-6.1070400e-01 -5.5854547e-01 -1.6000768e-02 
-6.0637575e-01 -5.5405480e-01 -1.3788323e-02 
-6.2067705e-01 -5.6844568e-01 -1.3963006e-02 
-6.1380351e-01 -5.6125170e-01 -9.4461283e-03 
-6.1315995e-01 -5.6093824e-01 -1.4774028e-02 
-6.2553030e-01 -5.7307351e-01 -9.9403095e-03 
-6.2535280e-01 -5.7309175e-01 -1.3078675e-02 
-6.0430807e-01 -5.5183709e-01 -1.1561669e-02 
-6.0405594e-01 -5.5185848e-01 -1.5964996e-02 
-6.0534722e-01 -5.5277508e-01 -9.8522222e-03 
-6.0724694e-01 -5.5464178e-01 -9.1619501e-03 
-6.0434133e-01 -5.5217969e-01 -1.6509520e-02 
-6.0631359e-01 -5.5412310e-01 -1.5870336e-02 
-6.0233313e-01 -5.4998225e-01 -1.3655442e-02 
-6.0911661e-01 -5.5652744e-01 -9.2536174e-03 
-6.0834420e-01 -5.5606836e-01 -1.4325473e-02 
-6.1522979e-01 -5.6267834e-01 -9.3258023e-03 
-6.2065899e-01 -5.6813538e-01 -9.2972517e-03 
-6.2049496e-01 -5.6810451e-01 -1.1436621e-02 
-6.1478621e-01 -5.6240803e-01 -1.2130165e-02 
-6.0005867e-01 -5.4782587e-01 -1.5746614e-02 
-6.0025525e-01 -5.4775125e-01 -1.1381824e-02 
-6.0291702e-01 -5.5027372e-01 -8.9225210e-03 
-6.0530365e-01 -5.5267859e-01 -9.0103615e-03 
-6.0098308e-01 -5.4837269e-01 -9.6146315e-03 
-6.2532687e-01 -5.7282019e-01 -9.1584418e-03 
-6.2524062e-01 -5.7282466e-01 -1.0614512e-02 
-6.0184741e-01 -5.4962432e-01 -1.5737122e-02 
-6.0439217e-01 -5.5210376e-01 -1.4467245e-02 
-5.9984022e-01 -5.4764652e-01 -1.6387586e-02 
-5.9826714e-01 -5.4588580e-01 -1.3521677e-02 
-6.0678852e-01 -5.5416512e-01 -8.9072753e-03 
-5.9617877e-01 -5.4364187e-01 -1.1200856e-02 
-5.9592235e-01 -5.4366577e-01 -1.5722027e-02 
-5.9850913e-01 -5.4582703e-01 -8.6793080e-03 
-6.0608405e-01 -5.5363321e-01 -1.1724105e-02 
-5.9653980e-01 -5.4389071e-01 -9.3732504e-03 
-6.0044897e-01 -5.4778570e-01 -8.8153072e-03 
-5.9730315e-01 -5.4504704e-01 -1.5601106e-02 
-5.9525973e-01 -5.4303354e-01 -1.6263638e-02 
-5.9940946e-01 -5.4706508e-01 -1.3999753e-02 
-5.9417689e-01 -5.4176545e-01 -1.3387306e-02 
-6.2517887e-01 -5.7252729e-01 -6.8575111e-03 
-6.1842841e-01 -5.6571853e-01 -6.5158894e-03 
-5.9207797e-01 -5.3950781e-01 -1.1019155e-02 
-5.9181958e-01 -5.3953320e-01 -1.5599743e-02 
-5.9402066e-01 -5.4129946e-01 -8.4322868e-03 
-5.9599739e-01 -5.4329640e-01 -8.5913651e-03 
-5.9531766e-01 -5.4296035e-01 -1.4145914e-02 
-5.9201467e-01 -5.3932667e-01 -9.1280639e-03 
-5.9267849e-01 -5.4038888e-01 -1.5462232e-02 
-5.9006226e-01 -5.3762054e-01 -1.3252147e-02 
-6.1167800e-01 -5.5891019e-01 -6.1745737e-03 
-5.9708732e-01 -5.4439062e-01 -8.5660229e-03 
-5.9059769e-01 -5.3833866e-01 -1.6137194e-02 
-6.0138220e-01 -5.4867297e-01 -7.9963226e-03 
-6.0133380e-01 -5.4872453e-01 -9.6005956e-03 
-5.9707946e-01 -5.4455346e-01 -1.1295976e-02 
-5.8794355e-01 -5.3564346e-01 -1.5707899e-02 
-5.8795255e-01 -5.3534961e-01 -1.0836932e-02 
-5.9146398e-01 -5.3872520e-01 -8.3640851e-03 
-5.8944917e-01 -5.3668857e-01 -8.1813578e-03 
-6.0492831e-01 -5.5210286e-01 -5.8338586e-03 
-5.8740556e-01 -5.3467810e-01 -8.8785542e-03 
-5.9015769e-01 -5.3774285e-01 -1.3657940e-02 
-5.8797055e-01 -5.3564739e-01 -1.5320648e-02 
-5.8592308e-01 -5.3345114e-01 -1.3116341e-02 
-5.8585137e-01 -5.3355920e-01 -1.6008355e-02 
-5.9463638e-01 -5.4186982e-01 -7.6496163e-03 
-5.8736414e-01 -5.3458744e-01 -8.0996668e-03 
-5.8380222e-01 -5.3116673e-01 -1.0653620e-02 
-5.8357924e-01 -5.3124970e-01 -1.5601437e-02 
-5.8479196e-01 -5.3199160e-01 -7.9266569e-03 
-5.8591729e-01 -5.3348958e-01 -1.3809205e-02 
-5.9818071e-01 -5.4529816e-01 -5.4945252e-03 
-5.8897930e-01 -5.3620648e-01 -8.0259368e-03 
-5.8270949e-01 -5.2994227e-01 -8.6253136e-03 
-5.8175826e-01 -5.2925658e-01 -1.2979895e-02 
-5.8317721e-01 -5.3081995e-01 -1.5175561e-02 
-5.8775437e-01 -5.3515112e-01 -1.0843435e-02 
-5.8101815e-01 -5.2869290e-01 -1.5876897e-02 
-5.7962644e-01 -5.2695847e-01 -1.0469807e-02 
-5.7916063e-01 -5.2679652e-01 -1.5416346e-02 
-5.8214134e-01 -5.2932584e-01 -7.8996485e-03 
-5.8004642e-01 -5.2720606e-01 -7.6680840e-03 
-5.9143293e-01 -5.3849363e-01 -5.1556355e-03 
-5.7756823e-01 -5.2503705e-01 -1.2842477e-02 
-5.8056867e-01 -5.2808201e-01 -1.3299380e-02 
-5.7792372e-01 -5.2511686e-01 -8.3682416e-03 
-5.7829523e-01 -5.2590418e-01 -1.5027709e-02 
-5.7609570e-01 -5.2373701e-01 -1.5742477e-02 
-5.7542533e-01 -5.2272516e-01 -1.0285455e-02 
-5.7515877e-01 -5.2275515e-01 -1.5104799e-02 
-5.7788402e-01 -5.2502990e-01 -7.6248241e-03 
-5.7957184e-01 -5.2672219e-01 -7.5616385e-03 
-5.7520974e-01 -5.2232939e-01 -7.4060974e-03 
-5.7617015e-01 -5.2367103e-01 -1.3456183e-02 
-5.7335323e-01 -5.2079237e-01 -1.2703976e-02 
-5.8468848e-01 -5.3169376e-01 -4.8182532e-03 
-5.7808769e-01 -5.2540517e-01 -1.0365407e-02 
-5.7304597e-01 -5.2019936e-01 -8.1073940e-03 
-5.7332301e-01 -5.2089745e-01 -1.4875783e-02 
-5.7104921e-01 -5.1861310e-01 -1.4902048e-02 
-5.7119894e-01 -5.1846737e-01 -1.0099771e-02 
-5.7108134e-01 -5.1868898e-01 -1.5605925e-02 
-5.7246011e-01 -5.1956719e-01 -7.4227685e-03 
-5.6911212e-01 -5.1652229e-01 -1.2565224e-02 
-5.7027990e-01 -5.1735973e-01 -7.1404069e-03 
-5.7062256e-01 -5.1806349e-01 -1.2922108e-02 
-5.6807280e-01 -5.1518649e-01 -7.8425482e-03 
-5.6825787e-01 -5.1579785e-01 -1.4721659e-02 
-5.7441378e-01 -5.2148050e-01 -6.6171992e-03 
-5.7794750e-01 -5.2489895e-01 -4.4824895e-03 
-5.6694627e-01 -5.1418251e-01 -9.9134278e-03 
-5.6667560e-01 -5.1421475e-01 -1.4853048e-02 
-5.6597185e-01 -5.1354617e-01 -1.5466725e-02 
-5.6803590e-01 -5.1510459e-01 -7.1367947e-03 
-5.6980175e-01 -5.1687527e-01 -7.0815585e-03 
-5.6484503e-01 -5.1222605e-01 -1.2425207e-02 
-5.6525242e-01 -5.1229239e-01 -6.8703610e-03 
-5.6605625e-01 -5.1348537e-01 -1.3085225e-02 
-5.6805980e-01 -5.1529795e-01 -9.8601729e-03 
-5.6278670e-01 -5.1031268e-01 -1.4939921e-02 
-5.6608510e-01 -5.1328892e-01 -9.4569791e-03 
-5.6276059e-01 -5.0998497e-01 -1.0036237e-02 
-5.6300157e-01 -5.1007539e-01 -7.5736977e-03 
-5.6309485e-01 -5.1060104e-01 -1.4562852e-02 
-5.7120949e-01 -5.1810712e-01 -4.1487794e-03 
-5.6076443e-01 -5.0830591e-01 -1.5323862e-02 
-5.6055206e-01 -5.0790489e-01 -1.2284643e-02 
-5.6239665e-01 -5.0942701e-01 -6.9322349e-03 
-5.6012541e-01 -5.0712508e-01 -6.5969061e-03 
-5.5818313e-01 -5.0568444e-01 -1.4870285e-02 
-5.5836278e-01 -5.0553679e-01 -9.5401648e-03 
-5.6029499e-01 -5.0766325e-01 -1.2525548e-02 
-5.5782944e-01 -5.0486344e-01 -7.3002875e-03 
-5.5783206e-01 -5.0530475e-01 -1.4401370e-02 
-5.5623257e-01 -5.0355726e-01 -1.2143764e-02 
-5.6447566e-01 -5.1132190e-01 -3.8172367e-03 
-5.5545598e-01 -5.0296474e-01 -1.5178397e-02 
-5.5976534e-01 -5.0675452e-01 -6.4536966e-03 
-5.5721498e-01 -5.0420618e-01 -6.6819387e-03 
-5.5403072e-01 -5.0117528e-01 -9.3521094e-03 
-5.5489516e-01 -5.0185508e-01 -6.3203881e-03 
-5.5554986e-01 -5.0290775e-01 -1.2695066e-02 
-5.5350149e-01 -5.0097305e-01 -1.4715524e-02 
-5.5764538e-01 -5.0480294e-01 -9.3259122e-03 
-5.5255276e-01 -4.9954718e-01 -7.0237997e-03 
-5.5188483e-01 -4.9918291e-01 -1.2002384e-02 
-5.5246741e-01 -4.9990705e-01 -1.4234819e-02 
-5.5277419e-01 -4.9973932e-01 -6.5527014e-03 
-5.5004418e-01 -4.9752140e-01 -1.5029185e-02 
-5.4967147e-01 -4.9678683e-01 -9.1644684e-03 
-5.4939187e-01 -4.9682295e-01 -1.4341993e-02 
-5.5774927e-01 -5.0454652e-01 -3.4884599e-03 
-5.5422837e-01 -5.0114107e-01 -5.6041209e-03 
-5.4955959e-01 -4.9648032e-01 -6.0407706e-03 
-5.4791522e-01 -4.9516448e-01 -1.1460850e-02 
-5.4956359e-01 -4.9686062e-01 -1.2107708e-02 
-5.4751134e-01 -4.9478385e-01 -1.1860386e-02 
-5.4716957e-01 -4.9412623e-01 -6.7457939e-03 
-5.4699868e-01 -4.9440557e-01 -1.4063141e-02 
-5.4528564e-01 -4.9237317e-01 -8.9761661e-03 
-5.4499865e-01 -4.9240136e-01 -1.4143164e-02 
-5.4653370e-01 -4.9345037e-01 -6.1757020e-03 
-5.4452628e-01 -4.9197319e-01 -1.4875975e-02 
-5.4825336e-01 -4.9514571e-01 -5.6707552e-03 
-5.4785711e-01 -4.9489826e-01 -8.0980789e-03 
-5.5102599e-01 -4.9777374e-01 -3.1627929e-03 
-5.4411650e-01 -4.9099892e-01 -5.7586059e-03 
-5.4311144e-01 -4.9035910e-01 -1.1716083e-02 
-5.4404092e-01 -4.9130383e-01 -1.1888860e-02 
-5.4167742e-01 -4.8859653e-01 -6.4637801e-03 
-5.4103130e-01 -4.8842943e-01 -1.4298808e-02 
-5.4087490e-01 -4.8793566e-01 -8.7888595e-03 
-5.4142118e-01 -4.8879814e-01 -1.3889716e-02 
-5.4103136e-01 -4.8791185e-01 -5.9167431e-03 
-5.3890085e-01 -4.8631826e-01 -1.4720272e-02 
-5.3868765e-01 -4.8591009e-01 -1.1571813e-02 
-5.3856081e-01 -4.8540723e-01 -5.4734559e-03 
-5.4113024e-01 -4.8813069e-01 -7.8347959e-03 
-5.4088622e-01 -4.8774233e-01 -5.5224155e-03 
-5.4431319e-01 -4.9101561e-01 -2.8411984e-03 
-5.3840858e-01 -4.8563889e-01 -1.1665721e-02 
-5.3615296e-01 -4.8351163e-01 -1.3949748e-02 
-5.3638959e-01 -4.8344269e-01 -8.9320829e-03 
-5.3607142e-01 -4.8295572e-01 -6.1771693e-03 
-5.3573436e-01 -4.8308200e-01 -1.3710388e-02 
-5.3423476e-01 -4.8143414e-01 -1.1428109e-02 
-5.3617191e-01 -4.8302782e-01 -5.7647312e-03 
-5.3316283e-01 -4.8055243e-01 -1.4560097e-02 
-5.3289121e-01 -4.7970280e-01 -5.1852087e-03 
-5.3197300e-01 -4.7898245e-01 -8.4104631e-03 
-5.3168398e-01 -4.7902253e-01 -1.3818128e-02 
-5.3266460e-01 -4.7986385e-01 -1.1436062e-02 
-5.3472948e-01 -4.8168114e-01 -7.3691881e-03 
-5.3761137e-01 -4.8427141e-01 -2.5223289e-03 
-5.3035057e-01 -4.7720045e-01 -5.8879144e-03 
-5.3382581e-01 -4.8062906e-01 -5.0127045e-03 
-5.2975404e-01 -4.7693339e-01 -1.1285643e-02 
-5.2993375e-01 -4.7725394e-01 -1.3526893e-02 
-5.3022844e-01 -4.7705218e-01 -5.5049499e-03 
-5.2747965e-01 -4.7446686e-01 -8.2219513e-03 
-5.2718860e-01 -4.7450966e-01 -1.3686320e-02 
-5.2730972e-01 -4.7467417e-01 -1.4397270e-02 
-5.2710330e-01 -4.7388196e-01 -4.8937406e-03 
-5.2680534e-01 -4.7397569e-01 -1.1200451e-02 
-5.2524638e-01 -4.7240767e-01 -1.1140705e-02 
-5.2832514e-01 -4.7525766e-01 -7.3211747e-03 
-5.3092140e-01 -4.7754231e-01 -2.2081882e-03 
-5.2450901e-01 -4.7132725e-01 -5.5953157e-03 
-5.2401537e-01 -4.7131088e-01 -1.3339194e-02 
-5.2732342e-01 -4.7408843e-01 -4.6548611e-03 
-5.2295941e-01 -4.6992517e-01 -8.0336658e-03 
-5.2266735e-01 -4.6997023e-01 -1.3553764e-02 
-5.2406609e-01 -4.7085881e-01 -5.2245529e-03 
-5.2133691e-01 -4.6867970e-01 -1.4230794e-02 
-5.2071226e-01 -4.6785468e-01 -1.0993964e-02 
-5.2119255e-01 -4.6794146e-01 -4.5994916e-03 
-5.2082634e-01 -4.6797013e-01 -1.0958714e-02 
-5.1841325e-01 -4.6535942e-01 -7.8448607e-03 
-5.1811814e-01 -4.6540347e-01 -1.3421954e-02 
-5.1854295e-01 -4.6533325e-01 -5.2986033e-03 
-5.2424413e-01 -4.7082976e-01 -1.8991028e-03 
-5.1797551e-01 -4.6524954e-01 -1.3146926e-02 
-5.2076614e-01 -4.6767741e-01 -7.2256946e-03 
-5.2087343e-01 -4.6760231e-01 -4.2911130e-03 
-5.1614934e-01 -4.6327597e-01 -1.0849471e-02 
-5.1780772e-01 -4.6457219e-01 -4.9431347e-03 
-5.1524121e-01 -4.6256545e-01 -1.4059325e-02 
-5.1515633e-01 -4.6187830e-01 -4.3040211e-03 
-5.1563042e-01 -4.6272725e-01 -1.0320957e-02 
-5.1383567e-01 -4.6076530e-01 -7.6556755e-03 
-5.1354134e-01 -4.6081454e-01 -1.3285534e-02 
-5.1244986e-01 -4.5921510e-01 -5.0009452e-03 
-5.1758009e-01 -4.6413291e-01 -1.5892013e-03 
-5.1155972e-01 -4.5867419e-01 -1.0699542e-02 
-5.1181263e-01 -4.5906782e-01 -1.2950171e-02 
-5.1434290e-01 -4.6104464e-01 -4.0095965e-03 
-5.1350868e-01 -4.6035904e-01 -6.4142556e-03 
-5.1154947e-01 -4.5828894e-01 -4.6626623e-03 
-5.0923401e-01 -4.5614925e-01 -7.4641104e-03 
-5.0893521e-01 -4.5619819e-01 -1.3149594e-02 
-5.0902158e-01 -4.5632973e-01 -1.3886780e-02 
-5.0899142e-01 -4.5569009e-01 -4.0067388e-03 
-5.0939906e-01 -4.5645696e-01 -9.7811837e-03 
-5.0694072e-01 -4.5404363e-01 -1.0550929e-02 
-5.0622916e-01 -4.5297122e-01 -4.7010109e-03 
-5.0583535e-01 -4.5290050e-01 -9.9450285e-03 
-5.1093084e-01 -4.5745778e-01 -1.2862829e-03 
-5.0552255e-01 -4.5276245e-01 -1.2748737e-02 
-5.0789845e-01 -4.5458215e-01 -3.8294143e-03 
-5.0460261e-01 -4.5150524e-01 -7.2778701e-03 
-5.0430089e-01 -4.5155278e-01 -1.3014842e-02 
-5.0524127e-01 -4.5195940e-01 -4.3735523e-03 
-5.0690293e-01 -4.5371598e-01 -5.9087654e-03 
-5.0267208e-01 -4.4996810e-01 -1.3707608e-02 
-5.0229448e-01 -4.4938719e-01 -1.0405330e-02 
-5.0269330e-01 -4.4937202e-01 -3.7062715e-03 
-5.0294787e-01 -4.4998705e-01 -9.4797453e-03 
-4.9994197e-01 -4.4683316e-01 -7.0873112e-03 
-4.9964216e-01 -4.4688612e-01 -1.2878030e-02 
-4.9986753e-01 -4.4659400e-01 -4.3995916e-03 
-5.0429243e-01 -4.5079601e-01 -9.8646327e-04 
-4.9910060e-01 -4.4632933e-01 -1.2541631e-02 
-5.0140965e-01 -4.4807437e-01 -3.5565509e-03 
-4.9761972e-01 -4.4470561e-01 -1.0255092e-02 
-4.9883750e-01 -4.4553992e-01 -4.0884088e-03 
-5.0042766e-01 -4.4720459e-01 -5.3312415e-03 
-4.9638507e-01 -4.4334275e-01 -8.1001148e-03 
-4.9618822e-01 -4.4347772e-01 -1.3527988e-02 
-4.9625656e-01 -4.4292063e-01 -3.4052467e-03 
-4.9525422e-01 -4.4214022e-01 -6.8967985e-03 
-4.9628568e-01 -4.4330224e-01 -9.0395007e-03 
-4.9433023e-01 -4.4158411e-01 -1.2956230e-02 
-4.9337003e-01 -4.4008392e-01 -4.0940973e-03 
-4.9291396e-01 -4.3999779e-01 -1.0106365e-02 
-4.9767539e-01 -4.4416332e-01 -6.9446536e-04 
-4.9254236e-01 -4.3974459e-01 -1.1986739e-02 
-4.9471495e-01 -4.4137380e-01 -3.3499135e-03 
-4.9258325e-01 -4.3927145e-01 -3.7743247e-03 
-4.9416387e-01 -4.4089267e-01 -4.4538514e-03 
-4.9055135e-01 -4.3743426e-01 -6.7285621e-03 
-4.9024823e-01 -4.3748695e-01 -1.2597394e-02 
-4.8956820e-01 -4.3685463e-01 -1.3342449e-02 
-4.8971137e-01 -4.3636754e-01 -3.1063808e-03 
-4.8821414e-01 -4.3529573e-01 -9.9567045e-03 
-4.8834819e-01 -4.3535182e-01 -8.6433431e-03 
-4.8678270e-01 -4.3349129e-01 -3.7887348e-03 
-4.9108309e-01 -4.3756247e-01 -4.1101975e-04 
-4.8586875e-01 -4.3274906e-01 -6.5755406e-03 
-4.8556900e-01 -4.3280497e-01 -1.2446136e-02 
-4.8594272e-01 -4.3316677e-01 -1.2170204e-02 
-4.8758110e-01 -4.3430257e-01 -4.1643819e-03 
-4.8668256e-01 -4.3333197e-01 -2.9737551e-03 
-4.8486203e-01 -4.3154743e-01 -3.4492032e-03 
-4.8354703e-01 -4.3062681e-01 -9.8064337e-03 
-4.8297933e-01 -4.3026653e-01 -1.3161804e-02 
-4.8318669e-01 -4.2983824e-01 -2.8042041e-03 
-4.8224214e-01 -4.2931831e-01 -9.5967241e-03 
-4.8122129e-01 -4.2810306e-01 -6.4276080e-03 
-4.8060092e-01 -4.2785254e-01 -1.2551753e-02 
-4.8030517e-01 -4.2700928e-01 -3.4922867e-03 
-4.8450691e-01 -4.3098336e-01 -1.3081737e-04 
-4.7940508e-01 -4.2663646e-01 -1.2021764e-02 
-4.7891206e-01 -4.2599493e-01 -9.6610505e-03 
-4.7937217e-01 -4.2605266e-01 -3.1719711e-03 
-4.8049268e-01 -4.2731830e-01 -5.5295448e-03 
-4.8109129e-01 -4.2770678e-01 -2.1728682e-03 
-4.7865397e-01 -4.2533502e-01 -3.1523185e-03 
-4.7649026e-01 -4.2378351e-01 -1.2978850e-02 
-4.7660261e-01 -4.2348897e-01 -6.2831435e-03 
-4.7630659e-01 -4.2354637e-01 -1.2146230e-02 
-4.7677037e-01 -4.2341816e-01 -2.5145935e-03 
-4.7576031e-01 -4.2284977e-01 -9.5165651e-03 
-4.7431195e-01 -4.2140070e-01 -9.5150862e-03 
-4.7393554e-01 -4.2063957e-01 -3.2098973e-03 
-4.7795165e-01 -4.2442933e-01 1.5259515e-04 
-4.7297031e-01 -4.2021275e-01 -1.1872911e-02 
-4.7216728e-01 -4.1943458e-01 -1.2356253e-02 
-4.7202379e-01 -4.1891715e-01 -6.1438610e-03 
-4.7302020e-01 -4.1969949e-01 -2.8805151e-03 
-4.7454530e-01 -4.2116165e-01 -1.8909255e-03 
-4.7446319e-01 -4.2118475e-01 -3.5958420e-03 
-4.7010320e-01 -4.1740629e-01 -1.2798969e-02 
-4.7207257e-01 -4.1897812e-01 -6.4414879e-03 
-4.7045985e-01 -4.1711223e-01 -2.2358052e-03 
-4.6974945e-01 -4.1684356e-01 -9.3732364e-03 
-4.7120255e-01 -4.1788539e-01 -2.8425106e-03 
-4.6938217e-01 -4.1648933e-01 -9.4348723e-03 
-4.6747661e-01 -4.1437581e-01 -6.0041584e-03 
-4.6767008e-01 -4.1438207e-01 -2.9335381e-03 
-4.7140524e-01 -4.1788462e-01 4.2078289e-04 
-4.6663657e-01 -4.1389498e-01 -1.1724854e-02 
-4.6625459e-01 -4.1353631e-01 -1.2239301e-02 
-4.6677440e-01 -4.1346145e-01 -2.5979364e-03 
-4.6521416e-01 -4.1232067e-01 -9.2300037e-03 
-4.6801302e-01 -4.1463000e-01 -1.6128779e-03 
-4.6792924e-01 -4.1465181e-01 -3.3155610e-03 
-4.6381447e-01 -4.1113546e-01 -1.2622121e-02 
-4.6425444e-01 -4.1091800e-01 -1.9670455e-03 
-4.6295971e-01 -4.0987399e-01 -5.8707814e-03 
-4.6266919e-01 -4.0993360e-01 -1.1706023e-02 
-4.6449625e-01 -4.1144574e-01 -6.6267652e-03 
-4.6469045e-01 -4.1138384e-01 -2.5832558e-03 
-4.6310449e-01 -4.1023573e-01 -9.3508055e-03 
-4.6157274e-01 -4.0868995e-01 -9.1136433e-03 
-4.6151191e-01 -4.0823790e-01 -2.6693100e-03 
-4.6071625e-01 -4.0783486e-01 -9.0880077e-03 
-4.6488318e-01 -4.1136882e-01 6.8498420e-04 
-4.6012697e-01 -4.0745121e-01 -1.2417601e-02 
-4.6040419e-01 -4.0768301e-01 -1.1576195e-02 
-4.6063498e-01 -4.0733480e-01 -2.3249083e-03 
-4.6150923e-01 -4.0814072e-01 -1.3437617e-03 
-4.6142346e-01 -4.0816158e-01 -3.0416353e-03 
-4.5848119e-01 -4.0541366e-01 -5.7404586e-03 
-4.5818704e-01 -4.0546793e-01 -1.1559323e-02 
-4.5801955e-01 -4.0505582e-01 -7.4690338e-03 
-4.5762324e-01 -4.0496680e-01 -1.2443271e-02 
-4.5794356e-01 -4.0493080e-01 -6.6416902e-03 
-4.5815808e-01 -4.0483660e-01 -1.7122817e-03 
-4.5800966e-01 -4.0498009e-01 -6.3424618e-03 
-4.5820647e-01 -4.0491983e-01 -2.3306001e-03 
-4.5693097e-01 -4.0409029e-01 -9.2605073e-03 
-4.5625395e-01 -4.0339124e-01 -8.9530293e-03 
-4.5566669e-01 -4.0300915e-01 -1.2270012e-02 
-4.5545661e-01 -4.0220299e-01 -2.4225113e-03 
-4.5423499e-01 -4.0151966e-01 -1.1215577e-02 
-4.5426595e-01 -4.0157461e-01 -1.1430864e-02 
-4.5838949e-01 -4.0489396e-01 9.4123854e-04 
-4.5402333e-01 -4.0116835e-01 -8.8439649e-03 
-4.5403734e-01 -4.0098733e-01 -5.6145494e-03 
-4.5460427e-01 -4.0132505e-01 -2.0565083e-03 
-4.5503366e-01 -4.0168998e-01 -1.0811578e-03 
-4.5494631e-01 -4.0170979e-01 -2.7742963e-03 
-4.5182979e-01 -3.9898711e-01 -8.8135581e-03 
-4.5153463e-01 -3.9890841e-01 -1.2269720e-02 
-4.5215595e-01 -3.9886042e-01 -1.4664612e-03 
-4.5085141e-01 -3.9804751e-01 -9.1831684e-03 
-4.5155194e-01 -3.9854488e-01 -6.0559255e-03 
-4.5175004e-01 -3.9848965e-01 -2.0773667e-03 
-4.4963214e-01 -3.9660484e-01 -5.4877158e-03 
-4.4946709e-01 -3.9662218e-01 -8.4499205e-03 
-4.4934088e-01 -3.9666441e-01 -1.1269077e-02 
-4.4950268e-01 -3.9627323e-01 -2.1772932e-03 
-4.4822669e-01 -3.9556640e-01 -1.1285451e-02 
-4.5192581e-01 -3.9845669e-01 1.1888928e-03 
-4.4867015e-01 -3.9541540e-01 -1.8041800e-03 
-4.4743842e-01 -3.9462060e-01 -8.6811464e-03 
-4.4685736e-01 -3.9424431e-01 -1.1994152e-02 
-4.4596741e-01 -3.9299205e-01 -5.9251147e-03 
-4.4626302e-01 -3.9299378e-01 -1.2302734e-03 
-4.4553769e-01 -3.9294448e-01 -1.2096108e-02 
-4.4858840e-01 -3.9527267e-01 -8.2588755e-04 
-4.4849962e-01 -3.9529088e-01 -2.5145118e-03 
-4.4528282e-01 -3.9246112e-01 -8.3350111e-03 