# vtk DataFile Version 4.0
vtk output
ASCII
DATASET UNSTRUCTURED_GRID
POINTS 6166 float
-4.3633327e-01 9.6409470e-01 4.4200001e+01 
-4.3633261e-01 9.6409082e-01 4.4079685e+01 
-3.2145375e-01 9.1276109e-01 4.4200001e+01 
-3.8566181e-01 8.4097892e-01 4.4200001e+01 
-3.3069235e-01 9.1895354e-01 4.4019413e+01 
-3.8473952e-01 8.3919770e-01 4.4024357e+01 
-4.3633196e-01 9.6408689e-01 4.3958702e+01 
-2.1293370e-01 8.4677851e-01 4.4200001e+01 
-2.9042658e-01 7.3813015e-01 4.4200001e+01 
-2.1019450e-01 8.4669626e-01 4.4077393e+01 
-2.8909999e-01 7.3605996e-01 4.4073399e+01 
-3.2963324e-01 9.1929907e-01 4.3898094e+01 
-3.8679782e-01 8.4179753e-01 4.3889645e+01 
-2.0740938e-01 8.4661204e-01 4.3952713e+01 
-4.3633130e-01 9.6408290e-01 4.3837040e+01 
-1.1677200e-01 7.7521002e-01 4.4200001e+01 
-2.8775173e-01 7.3395580e-01 4.3944717e+01 
-1.9365783e-01 6.6203654e-01 4.4200001e+01 
-1.1309985e-01 7.7540898e-01 4.4012005e+01 
-1.9181472e-01 6.5888047e-01 4.4006447e+01 
-3.2856464e-01 9.1964108e-01 4.3776085e+01 
-3.8823184e-01 8.4352189e-01 4.3765770e+01 
-2.0457739e-01 8.4652513e-01 4.3825886e+01 
-2.8638119e-01 7.3181647e-01 4.3813885e+01 
-4.3633065e-01 9.6407896e-01 4.3714680e+01 
-1.0911675e-01 7.7426714e-01 4.3886200e+01 
-2.1001574e-02 6.8269837e-01 4.4200001e+01 
-1.8902887e-01 6.5566909e-01 4.3876659e+01 
-7.8887597e-02 5.9015810e-01 4.4200001e+01 
-3.2748649e-01 9.1997939e-01 4.3653378e+01 
-3.9889076e-01 8.5876143e-01 4.3651733e+01 
-2.0169757e-01 8.4643483e-01 4.3696846e+01 
-7.2496021e-03 6.7325598e-01 4.3947758e+01 
-1.0504345e-01 7.7307969e-01 4.3758209e+01 
-2.8498772e-01 7.2964084e-01 4.3680840e+01 
-6.3224643e-02 5.7783771e-01 4.3940754e+01 
3.5808440e-02 6.2679136e-01 4.4056572e+01 
-1.8616955e-01 6.5238589e-01 4.3744686e+01 
-4.3632996e-01 9.6407503e-01 4.3591618e+01 
-9.8678423e-03 5.4892725e-01 4.4055367e+01 
-1.8652271e-02 6.8798620e-01 4.3834026e+01 
-7.9845116e-02 5.8636194e-01 4.3823372e+01 
8.7777540e-02 5.7885915e-01 4.4200001e+01 
5.3622175e-02 5.1732427e-01 4.4200001e+01 
-3.2639861e-01 9.2031354e-01 4.3529953e+01 
-3.9894739e-01 8.5844576e-01 4.3528313e+01 
-1.9876897e-01 8.4634024e-01 4.3565521e+01 
-1.0087753e-01 7.7184403e-01 4.3627972e+01 
-2.8357074e-01 7.2742778e-01 4.3545506e+01 
-1.8323407e-01 6.4902818e-01 4.3610458e+01 
-4.3632931e-01 9.6407109e-01 4.3467831e+01 
3.1033519e-03 6.6751039e-01 4.3691772e+01 
-5.3600248e-02 5.6906003e-01 4.3676846e+01 
1.2436585e-01 5.5082864e-01 4.3886215e+01 
1.7079005e-01 5.1095647e-01 4.4054855e+01 
1.4951277e-01 4.6697062e-01 4.4053665e+01 
1.0028158e-01 4.8915190e-01 4.3877911e+01 
-4.0513036e-01 8.6722642e-01 4.3405304e+01 
-3.2530096e-01 9.2064321e-01 4.3405800e+01 
-9.6616447e-02 7.7055699e-01 4.3495411e+01 
-8.4563000e-03 6.8258613e-01 4.3574005e+01 
-1.9579062e-01 8.4624058e-01 4.3431831e+01 
2.1753120e-01 4.7335833e-01 4.4200001e+01 
2.0360756e-01 4.4289169e-01 4.4200001e+01 
-1.8021962e-01 6.4559317e-01 4.3473904e+01 
-7.0636064e-02 5.7773441e-01 4.3555408e+01 
-2.8212959e-01 7.2517604e-01 4.3407806e+01 
-4.3632865e-01 9.6406716e-01 4.3343307e+01 
1.3810426e-01 5.4143524e-01 4.3628246e+01 
-3.2419339e-01 9.2096806e-01 4.3280907e+01 
-3.9903235e-01 8.5775709e-01 4.3279266e+01 
-9.2257597e-02 7.6921552e-01 4.3360443e+01 
1.1508528e-01 4.7804743e-01 4.3612068e+01 
-1.9276154e-01 8.4613472e-01 4.3295704e+01 
1.4013666e-02 6.6131532e-01 4.3426643e+01 
-1.7712323e-01 6.4207786e-01 4.3334946e+01 
-2.8066361e-01 7.2288430e-01 4.3267666e+01 
-4.3382257e-02 5.5983055e-01 4.3403778e+01 
-4.3632799e-01 9.6406323e-01 4.3218033e+01 
3.7877345e-01 3.8273901e-01 4.4200001e+01 
3.9076596e-01 3.7443376e-01 4.3993755e+01 
-3.2307580e-01 9.2128778e-01 4.3155251e+01 
-3.9906058e-01 8.5738426e-01 4.3153610e+01 
-8.7798268e-02 7.6781619e-01 4.3222996e+01 
1.9689407e-02 6.5803534e-01 4.3290459e+01 
-6.0862999e-02 5.6866169e-01 4.3278019e+01 
-1.8968078e-01 8.4602165e-01 4.3157055e+01 
-1.7394182e-01 6.3847917e-01 4.3193501e+01 
-4.3632734e-01 9.6405929e-01 4.3091995e+01 
4.0275589e-01 3.6612594e-01 4.3787510e+01 
1.2304078e-01 5.5709994e-01 4.3330139e+01 
-2.7917209e-01 7.2055119e-01 4.3125000e+01 
2.5336364e-01 4.4907436e-01 4.3468094e+01 
2.3670304e-01 4.1684708e-01 4.3469433e+01 
1.3086085e-01 4.6634668e-01 4.3336948e+01 
-3.8351217e-01 8.3473074e-01 4.3036392e+01 
-3.2194808e-01 9.2160189e-01 4.3028820e+01 
2.5518833e-02 6.5462554e-01 4.3151749e+01 
-8.3235659e-02 7.6635528e-01 4.3082981e+01 
4.1474071e-01 3.5781288e-01 4.3581264e+01 
-1.8654740e-01 8.4590012e-01 4.3015797e+01 
-3.2522827e-02 5.5011308e-01 4.3120937e+01 
-1.7067213e-01 6.3479382e-01 4.3049488e+01 
-4.3632668e-01 9.6405542e-01 4.2965172e+01 
-2.7765438e-01 7.1817529e-01 4.2979721e+01 
2.6620242e-01 4.4011977e-01 4.3261948e+01 
1.3584816e-02 6.7044950e-01 4.3025066e+01 
-3.2081014e-01 9.2191011e-01 4.2901604e+01 
-3.8160574e-01 8.3169121e-01 4.2902863e+01 
-7.8566879e-02 7.6482886e-01 4.2940315e+01 
-5.0480481e-02 5.5910730e-01 4.2990566e+01 
4.2671782e-01 3.4949207e-01 4.3375019e+01 
1.6821145e-01 5.2049083e-01 4.3083881e+01 
-1.8336046e-01 8.4576881e-01 4.2871841e+01 
-4.3632606e-01 9.6405160e-01 4.2837555e+01 
-1.6731077e-01 6.3101834e-01 4.2902817e+01 
1.4768846e-01 4.5400122e-01 4.3051926e+01 
-2.7610970e-01 7.1575516e-01 4.2831745e+01 
-3.1966189e-01 9.2221189e-01 4.2773579e+01 
-3.8560396e-01 8.3684862e-01 4.2767078e+01 
3.7660085e-02 6.4738947e-01 4.2866421e+01 
-7.3788933e-02 7.6323271e-01 4.2794899e+01 
4.3868470e-01 3.4116083e-01 4.3168777e+01 
-4.3632543e-01 9.6404779e-01 4.2709122e+01 
-2.0968946e-02 5.3986710e-01 4.2827656e+01 
-1.8011902e-01 8.4562629e-01 4.2725094e+01 
-1.6385415e-01 6.2714905e-01 4.2753403e+01 
-2.7453732e-01 7.1328926e-01 4.2680973e+01 
-3.1850323e-01 9.2250693e-01 4.2644733e+01 
-3.9907700e-01 8.5570478e-01 4.2643101e+01 
2.5504474e-02 6.6361672e-01 4.2734810e+01 
1.8471870e-01 5.0880390e-01 4.2796177e+01 
-6.8898737e-02 7.6156229e-01 4.2646645e+01 
-3.9438177e-02 5.4903054e-01 4.2692345e+01 
-4.3632481e-01 9.6404403e-01 4.2579861e+01 
4.5063871e-01 3.3281663e-01 4.2962532e+01 
1.6565691e-01 4.4095638e-01 4.2756321e+01 
-1.7682223e-01 8.4547096e-01 4.2575459e+01 
-1.6029853e-01 6.2318206e-01 4.2601143e+01 
-4.0415615e-01 8.6278629e-01 4.2516582e+01 
-3.1733403e-01 9.2279470e-01 4.2515053e+01 
-2.7293649e-01 7.1077597e-01 4.2527313e+01 
5.0482783e-02 6.3954860e-01 4.2569923e+01 
-4.3632418e-01 9.6404034e-01 4.2449757e+01 
-6.3893095e-02 7.5981271e-01 4.2495445e+01 
-8.6617703e-03 5.2904755e-01 4.2523201e+01 
-1.7346917e-01 8.4530097e-01 4.2422829e+01 
-1.5663996e-01 6.1911333e-01 4.2445942e+01 
3.0435190e-01 4.1341871e-01 4.2643494e+01 
4.6257737e-01 3.2445681e-01 4.2756287e+01 
-3.1615424e-01 9.2307472e-01 4.2384518e+01 
-3.9902648e-01 8.5475212e-01 4.2382885e+01 
-2.7130640e-01 7.0821363e-01 4.2370659e+01 
3.8079392e-02 6.5619886e-01 4.2433029e+01 
2.0230262e-01 4.9620378e-01 4.2497147e+01 
-4.3632355e-01 9.6403670e-01 4.2318787e+01 
-5.8768708e-02 7.5797862e-01 4.2341198e+01 
-2.7680276e-02 5.3838593e-01 4.2382599e+01 
1.8486446e-01 4.2715022e-01 4.2449394e+01 
-3.8436696e-01 8.3356136e-01 4.2264896e+01 
8.9545198e-02 5.3233254e-01 4.2382050e+01 
-3.3225983e-01 9.3122375e-01 4.2255634e+01 
-1.7005907e-01 8.4511453e-01 4.2267101e+01 
-1.5287429e-01 6.1493850e-01 4.2287693e+01 
4.7449806e-01 3.1607881e-01 4.2550037e+01 
-2.6964626e-01 7.0560038e-01 4.2210907e+01 
-4.3632296e-01 9.6403313e-01 4.2186939e+01 
6.4036883e-02 6.3103610e-01 4.2261456e+01 
-5.3522192e-02 7.5605446e-01 4.2183796e+01 
-3.7873057e-01 8.2541841e-01 4.2124020e+01 
-3.1376252e-01 9.2360973e-01 4.2120819e+01 
4.4639236e-03 5.1760370e-01 4.2206776e+01 
-1.6659111e-01 8.4490943e-01 4.2108162e+01 
-1.4899719e-01 6.1065292e-01 4.2126286e+01 
-4.3632239e-01 9.6402961e-01 4.2054195e+01 
4.8639825e-01 3.0768004e-01 4.2343792e+01 
-2.6795524e-01 7.0293444e-01 4.2047943e+01 
2.4746621e-01 4.6040925e-01 4.2191032e+01 
7.1105182e-02 6.2650448e-01 4.2102463e+01 
-3.1255043e-01 9.2386365e-01 4.1987617e+01 
-4.8150036e-02 7.5403398e-01 4.2023121e+01 
-1.5144684e-02 5.2712250e-01 4.2060505e+01 
-3.7995064e-01 8.2661813e-01 4.1980038e+01 
2.0541981e-01 4.1251117e-01 4.2130333e+01 
-1.6306458e-01 8.4468329e-01 4.1945896e+01 
-4.3632182e-01 9.6402621e-01 4.1920536e+01 
-1.4500406e-01 6.0625184e-01 4.1961609e+01 
1.3375351e-01 5.6370503e-01 4.1969833e+01 
-2.6623246e-01 7.0021385e-01 4.1881653e+01 
-3.1132740e-01 9.2410773e-01 4.1853493e+01 
-3.9880505e-01 8.5261923e-01 4.1851868e+01 
4.9827534e-01 2.9925787e-01 4.2137547e+01 
3.4194937e-01 3.8685825e-01 4.2025021e+01 
-4.2648647e-02 7.5191063e-01 4.1859051e+01 
-2.5401810e-01 7.9503769e-01 4.1808533e+01 
1.8480448e-02 5.0547802e-01 4.1877510e+01 
-4.3632126e-01 9.6402287e-01 4.1785946e+01 
-1.5947884e-01 8.4443361e-01 4.1780174e+01 
-1.4089009e-01 6.0172999e-01 4.1793541e+01 
-3.1009343e-01 9.2434150e-01 4.1718426e+01 
-4.0306881e-01 8.5845691e-01 4.1716179e+01 
8.5861288e-02 6.1683756e-01 4.1774368e+01 
-2.6447710e-01 6.9743657e-01 4.1711910e+01 
3.0427080e-01 4.1638452e-01 4.1839512e+01 
2.6751360e-01 3.7833902e-01 4.1830902e+01 
5.1012677e-01 2.9080975e-01 4.1931297e+01 
-3.7014309e-02 7.4967718e-01 4.1691463e+01 
-4.3632072e-01 9.6401966e-01 4.1650398e+01 
2.5847588e-02 4.9913955e-01 4.1707767e+01 
-1.5583332e-01 8.4415752e-01 4.1610870e+01 
-3.8322043e-01 8.2981020e-01 4.1595791e+01 
-3.0884841e-01 9.2456430e-01 4.1582397e+01 
-1.3665022e-01 5.9708190e-01 4.1621960e+01 
9.3565010e-02 6.1167872e-01 4.1605015e+01 
-2.6268822e-01 6.9460052e-01 4.1538593e+01 
-4.3632022e-01 9.6401656e-01 4.1513885e+01 
-3.1243213e-02 7.4732590e-01 4.1520226e+01 
2.7603787e-01 3.7115356e-01 4.1624012e+01 
2.8505871e-01 4.3281260e-01 4.1611507e+01 
5.2195001e-01 2.8233302e-01 4.1725052e+01 
3.3468332e-02 4.9260557e-01 4.1534447e+01 
-3.9853087e-01 8.5081697e-01 4.1443768e+01 
-3.2560509e-01 9.3245691e-01 4.1443577e+01 
-1.5212752e-01 8.4385180e-01 4.1437847e+01 
-1.3227913e-01 5.9230179e-01 4.1446728e+01 
-4.3631971e-01 9.6401358e-01 4.1376381e+01 
[...]
POINT_DATA 6166
FIELD FieldData 5
DISPLACEMENT 3 6166  float
8.2840443e-01 7.5511891e-01 -2.3691662e-02 
8.2356948e-01 7.5025988e-01 -2.3496054e-02 
8.2836336e-01 7.5509000e-01 -2.6236337e-02 
8.2848763e-01 7.5518817e-01 -2.0757237e-02 
8.2110775e-01 7.4779767e-01 -2.5821635e-02 
8.2143044e-01 7.4809563e-01 -2.0437038e-02 
8.1870782e-01 7.4537396e-01 -2.3299340e-02 
8.2834220e-01 7.5507706e-01 -2.7933925e-02 
8.2851440e-01 7.5521344e-01 -2.0432310e-02 
8.2341313e-01 7.5012392e-01 -2.7841507e-02 
8.2342792e-01 7.5010145e-01 -2.0196361e-02 
8.1623131e-01 7.4289715e-01 -2.5681000e-02 
8.1601620e-01 7.4265444e-01 -2.0240465e-02 
8.1840062e-01 7.4508691e-01 -2.7747445e-02 
8.1381887e-01 7.4046063e-01 -2.3101501e-02 
8.2833666e-01 7.5507623e-01 -2.8909249e-02 
8.1825781e-01 7.4490541e-01 -1.9956576e-02 
8.2851291e-01 7.5521600e-01 -2.1249298e-02 
8.2077897e-01 7.4748152e-01 -2.8759442e-02 
8.2073671e-01 7.4740070e-01 -2.0881515e-02 
8.1132734e-01 7.3796904e-01 -2.5539422e-02 
8.1103778e-01 7.3765135e-01 -2.0051284e-02 
8.1330198e-01 7.3996335e-01 -2.7651619e-02 
8.1300157e-01 7.3962283e-01 -1.9712878e-02 
8.0890220e-01 7.3551947e-01 -2.2902532e-02 
8.1572133e-01 7.4239922e-01 -2.8668962e-02 
8.2835257e-01 7.5509280e-01 -2.9023198e-02 
8.1552202e-01 7.4215996e-01 -2.0653043e-02 
8.2849264e-01 7.5520396e-01 -2.2959974e-02 
8.0639541e-01 7.3301286e-01 -2.5396857e-02 
8.0644882e-01 7.3304045e-01 -2.0053063e-02 
8.0811453e-01 7.3475063e-01 -2.7553899e-02 
8.1821454e-01 7.4490488e-01 -2.8784845e-02 
8.1057620e-01 7.3722893e-01 -2.8576681e-02 
8.0765635e-01 7.3425102e-01 -1.9465193e-02 
8.1807452e-01 7.4473453e-01 -2.2670934e-02 
8.2259935e-01 7.4931091e-01 -2.8816167e-02 
8.1021976e-01 7.3683131e-01 -2.0421239e-02 
8.0395734e-01 7.3055011e-01 -2.2702435e-02 
8.2266617e-01 7.4935383e-01 -2.3834288e-02 
8.1363875e-01 7.4030685e-01 -2.8736480e-02 
8.1336218e-01 7.3999721e-01 -2.2156501e-02 
8.2836938e-01 7.5511062e-01 -2.9202610e-02 
8.2845902e-01 7.5518185e-01 -2.5345044e-02 
8.0143511e-01 7.2802830e-01 -2.5253333e-02 
8.0149001e-01 7.2805709e-01 -1.9837769e-02 
8.0283552e-01 7.2944593e-01 -2.7454164e-02 
8.0534083e-01 7.3196805e-01 -2.8482411e-02 
8.0221963e-01 7.2878712e-01 -1.9213332e-02 
8.0482709e-01 7.3141187e-01 -2.0185862e-02 
7.9898381e-01 7.2555208e-01 -2.2501022e-02 
8.0792540e-01 7.3456526e-01 -2.8552912e-02 
8.0747026e-01 7.3407775e-01 -2.2274848e-02 
8.1575829e-01 7.4243802e-01 -2.9031528e-02 
8.2253796e-01 7.4925286e-01 -2.9561516e-02 
8.2255173e-01 7.4925381e-01 -2.6928233e-02 
8.1550622e-01 7.4216789e-01 -2.5559582e-02 
7.9654425e-01 7.2308755e-01 -1.9744271e-02 
7.9644585e-01 7.2301477e-01 -2.5108622e-02 
8.0001241e-01 7.2661370e-01 -2.8386021e-02 
8.0318755e-01 7.2980446e-01 -2.8505508e-02 
7.9746205e-01 7.2404647e-01 -2.7352279e-02 
8.2837093e-01 7.5511688e-01 -3.0157864e-02 
8.2841295e-01 7.5515032e-01 -2.8367948e-02 
7.9934138e-01 7.2589910e-01 -1.9947119e-02 
8.0259579e-01 7.2917759e-01 -2.1743488e-02 
7.9668838e-01 7.2322857e-01 -1.8957475e-02 
7.9398131e-01 7.2052509e-01 -2.2298634e-02 
8.0539012e-01 7.3201889e-01 -2.8785205e-02 
7.9142749e-01 7.1797234e-01 -2.4963152e-02 
7.9148561e-01 7.1800363e-01 -1.9402945e-02 
7.9458803e-01 7.2116315e-01 -2.8287301e-02 
8.0482227e-01 7.3143148e-01 -2.5274521e-02 
7.9199117e-01 7.1854943e-01 -2.7247980e-02 
7.9726988e-01 7.2385764e-01 -2.8310169e-02 
7.9375970e-01 7.2029001e-01 -1.9704852e-02 
7.9105973e-01 7.1757227e-01 -1.8697057e-02 
7.9649919e-01 7.2305286e-01 -2.1870252e-02 
7.8894925e-01 7.1546859e-01 -2.2094902e-02 
8.2833207e-01 7.5509161e-01 -3.2979608e-02 
8.2004237e-01 7.4676090e-01 -3.2791112e-02 
7.8637928e-01 7.1289974e-01 -2.4816547e-02 
7.8643930e-01 7.1293265e-01 -1.9183302e-02 
7.8906471e-01 7.1561348e-01 -2.8186066e-02 
7.9179764e-01 7.1835887e-01 -2.8184125e-02 
7.9145253e-01 7.1798003e-01 -2.1321006e-02 
7.8641975e-01 7.1295172e-01 -2.7141025e-02 
7.8807920e-01 7.1458191e-01 -1.9458991e-02 
7.8388715e-01 7.1038228e-01 -2.1889992e-02 
8.1175268e-01 7.3843032e-01 -3.2602370e-02 
7.9340887e-01 7.1997815e-01 -2.8327284e-02 
7.8533077e-01 7.1181566e-01 -1.8432390e-02 
7.9895437e-01 7.2555542e-01 -2.9428087e-02 
7.9905397e-01 7.2564602e-01 -2.7459603e-02 
7.9376668e-01 7.2032213e-01 -2.4989465e-02 
7.8174204e-01 7.0821166e-01 -1.8704345e-02 
7.8130096e-01 7.0779759e-01 -2.4668409e-02 
7.8622496e-01 7.1275973e-01 -2.8055079e-02 
7.8343928e-01 7.0996165e-01 -2.8082266e-02 
8.0346352e-01 7.3010045e-01 -3.2413065e-02 
7.8074485e-01 7.0725036e-01 -2.7031951e-02 
7.8513843e-01 7.1163762e-01 -2.1457082e-02 
7.8229636e-01 7.0877165e-01 -1.9208990e-02 
7.7879488e-01 7.0526588e-01 -2.1683710e-02 
7.7949810e-01 7.0595515e-01 -1.8163214e-02 
7.9067087e-01 7.1723139e-01 -2.9246734e-02 
7.8113157e-01 7.0764256e-01 -2.8008021e-02 
7.7619195e-01 7.0266515e-01 -2.4519328e-02 
7.7638203e-01 7.0282650e-01 -1.8442268e-02 
7.7770847e-01 7.0420426e-01 -2.7975591e-02 
7.7990878e-01 7.0638144e-01 -2.0888371e-02 
7.9517549e-01 7.2177124e-01 -3.2222290e-02 
7.8351742e-01 7.1004033e-01 -2.8264571e-02 
7.7496290e-01 7.0144188e-01 -2.6919831e-02 
7.7367139e-01 7.0011872e-01 -2.1475989e-02 
7.7640849e-01 7.0285612e-01 -1.8955735e-02 
7.8231686e-01 7.0881808e-01 -2.4706189e-02 
7.7355838e-01 6.9998801e-01 -1.7889503e-02 
7.7105165e-01 6.9750172e-01 -2.4368931e-02 
7.7092975e-01 6.9734925e-01 -1.8270737e-02 
7.7476537e-01 7.0124686e-01 -2.7786462e-02 
7.7186900e-01 6.9833833e-01 -2.7865831e-02 
7.8688800e-01 7.1344346e-01 -3.2031201e-02 
7.6851672e-01 6.9494098e-01 -2.1267377e-02 
7.7336311e-01 6.9980764e-01 -2.1034624e-02 
7.6907068e-01 6.9552338e-01 -2.6804483e-02 
7.7041149e-01 6.9683200e-01 -1.8698016e-02 
7.6750880e-01 6.9391108e-01 -1.7611485e-02 
7.6588041e-01 6.9230753e-01 -2.4216982e-02 
7.6594728e-01 6.9234568e-01 -1.8290350e-02 
7.6947677e-01 6.9593441e-01 -2.7738255e-02 
7.7196401e-01 6.9843352e-01 -2.7988898e-02 
7.6591754e-01 6.9236046e-01 -2.7752407e-02 
7.6793849e-01 6.9435674e-01 -2.0445157e-02 
7.6333117e-01 6.8973249e-01 -2.1057945e-02 
7.7860391e-01 7.0512068e-01 -3.1839386e-02 
7.7044713e-01 6.9689363e-01 -2.4423972e-02 
7.6306492e-01 6.8949193e-01 -2.6685853e-02 
7.6430339e-01 6.9069666e-01 -1.8437365e-02 
7.6086897e-01 6.8724620e-01 -1.8168380e-02 
7.6067775e-01 6.8708324e-01 -2.4064532e-02 
7.6134622e-01 6.8772101e-01 -1.7328192e-02 
7.6286536e-01 6.8929362e-01 -2.7501876e-02 
7.5811362e-01 6.8449259e-01 -2.0846713e-02 
7.5985140e-01 6.8626857e-01 -2.7635377e-02 
7.6114815e-01 6.8753904e-01 -2.0603927e-02 
7.5694209e-01 6.8334353e-01 -2.6563752e-02 
7.5808096e-01 6.8444717e-01 -1.8171590e-02 
7.6583612e-01 6.9228226e-01 -2.8697059e-02 
7.7032363e-01 6.9680321e-01 -3.1646471e-02 
7.5544274e-01 6.8182570e-01 -2.3910800e-02 
7.5551313e-01 6.8186653e-01 -1.7836241e-02 
7.5506651e-01 6.8141484e-01 -1.7039774e-02 
7.5736970e-01 6.8377548e-01 -2.7452616e-02 
7.5996536e-01 6.8638259e-01 -2.7701272e-02 
7.5286376e-01 6.7922086e-01 -2.0634843e-02 
7.5366515e-01 6.8005705e-01 -2.7515318e-02 
7.5551683e-01 6.8188220e-01 -1.9992225e-02 
7.5813252e-01 6.8452656e-01 -2.4144007e-02 
7.5079399e-01 6.7712665e-01 -1.7382836e-02 
7.5540626e-01 6.8179071e-01 -2.4447363e-02 
7.5028306e-01 6.7664331e-01 -2.3382816e-02 
7.5069815e-01 6.7707437e-01 -2.6438033e-02 
7.5173807e-01 6.7807871e-01 -1.7902836e-02 
7.6204681e-01 6.8848890e-01 -3.1450927e-02 
7.4866599e-01 6.7498875e-01 -1.6747350e-02 
7.4758214e-01 6.7391837e-01 -2.0421615e-02 
7.5049573e-01 6.7687297e-01 -2.7200753e-02 
7.4735636e-01 6.7372292e-01 -2.7390737e-02 
7.4515450e-01 6.7146528e-01 -1.7055701e-02 
7.4487662e-01 6.7121738e-01 -2.3597870e-02 
7.4846387e-01 6.7480314e-01 -2.0163896e-02 
7.4432981e-01 6.7068136e-01 -2.6309233e-02 
7.4527234e-01 6.7158794e-01 -1.7628735e-02 
7.4226749e-01 6.6858315e-01 -2.0206586e-02 
7.5377429e-01 6.8018210e-01 -3.1254530e-02 
7.4214101e-01 6.6843879e-01 -1.6449524e-02 
7.4769342e-01 6.7406189e-01 -2.7575321e-02 
7.4412662e-01 6.7047817e-01 -2.7043575e-02 
7.3954350e-01 6.6586554e-01 -2.3439694e-02 
7.4092048e-01 6.6726273e-01 -2.7261268e-02 
7.4261200e-01 6.6892719e-01 -1.9528925e-02 
7.3939002e-01 6.6567993e-01 -1.6825097e-02 
7.4534261e-01 6.7168552e-01 -2.3866318e-02 
7.3783273e-01 6.6416043e-01 -2.6175512e-02 
7.3691839e-01 6.6321516e-01 -1.9989841e-02 
7.3868084e-01 6.6497272e-01 -1.7352086e-02 
7.3882782e-01 6.6516012e-01 -2.6812904e-02 
7.3548830e-01 6.6176289e-01 -1.6147299e-02 
7.3417699e-01 6.6048086e-01 -2.3279252e-02 
7.3425317e-01 6.6052651e-01 -1.6911466e-02 
7.4551046e-01 6.7188668e-01 -3.1056697e-02 
7.4104214e-01 6.6738820e-01 -2.8132299e-02 
7.3435491e-01 6.6067380e-01 -2.7126836e-02 
7.3246139e-01 6.5874565e-01 -2.0322094e-02 
7.3528206e-01 6.6157359e-01 -1.9715523e-02 
7.3153722e-01 6.5781695e-01 -1.9772265e-02 
7.3120433e-01 6.5751058e-01 -2.6034893e-02 
7.3196077e-01 6.5822989e-01 -1.7073058e-02 
7.2877777e-01 6.5506482e-01 -2.3117654e-02 
7.2882837e-01 6.5508598e-01 -1.6760936e-02 
7.3099744e-01 6.5730286e-01 -2.6709555e-02 
7.2870451e-01 6.5495831e-01 -1.5841100e-02 
7.3361909e-01 6.5993667e-01 -2.7511187e-02 
7.3334080e-01 6.5964490e-01 -2.4500832e-02 
7.3724985e-01 6.6359389e-01 -3.0855034e-02 
7.2765672e-01 6.5395397e-01 -2.6986675e-02 
7.2612292e-01 6.5238702e-01 -1.9555250e-02 
7.2849709e-01 6.5476769e-01 -1.9490020e-02 
7.2444129e-01 6.5072685e-01 -2.5890280e-02 
7.2403347e-01 6.5027601e-01 -1.6218381e-02 
7.2334743e-01 6.4961916e-01 -2.2953294e-02 
7.2510660e-01 6.5135646e-01 -1.6787089e-02 
7.2423345e-01 6.5051782e-01 -2.6536372e-02 
7.2178769e-01 6.4802176e-01 -1.5528996e-02 
7.2067863e-01 6.4692634e-01 -1.9336833e-02 
7.2081965e-01 6.4709812e-01 -2.6841123e-02 
7.2507364e-01 6.5135223e-01 -2.4223242e-02 
7.2450805e-01 6.5079588e-01 -2.7032496e-02 
7.2900021e-01 6.5531641e-01 -3.0651418e-02 
7.2157693e-01 6.4782882e-01 -1.9261450e-02 
7.1796489e-01 6.4419073e-01 -1.6207987e-02 
7.1781915e-01 6.4407307e-01 -2.2375699e-02 
7.1753740e-01 6.4380634e-01 -2.5741870e-02 
7.1811694e-01 6.4434934e-01 -1.6499313e-02 
7.1519840e-01 6.4143270e-01 -1.9115454e-02 
7.1834314e-01 6.4461195e-01 -2.6294632e-02 
7.1473151e-01 6.4094895e-01 -1.5213099e-02 
7.1384192e-01 6.4010364e-01 -2.6690181e-02 
7.1238583e-01 6.3863087e-01 -2.2623582e-02 
7.1246588e-01 6.3868105e-01 -1.5970388e-02 
7.1451855e-01 6.4075434e-01 -1.9031538e-02 
7.1721202e-01 6.4347142e-01 -2.4225514e-02 
7.2076309e-01 6.4705509e-01 -3.0446073e-02 
7.1049136e-01 6.3674450e-01 -2.5587708e-02 
7.1588153e-01 6.4214861e-01 -2.7033130e-02 
7.0968360e-01 6.3590789e-01 -1.8890990e-02 
7.1098650e-01 6.3720417e-01 -1.6207416e-02 
7.1108156e-01 6.3733482e-01 -2.6087625e-02 
7.0685214e-01 6.3308829e-01 -2.2455029e-02 
7.0693368e-01 6.3314152e-01 -1.5731484e-02 
7.0753270e-01 6.3373679e-01 -1.4891305e-02 
7.0671785e-01 6.3296562e-01 -2.6533732e-02 
7.0731741e-01 6.3354045e-01 -1.8799702e-02 
7.0413458e-01 6.3035178e-01 -1.8667791e-02 
7.0933300e-01 6.3557589e-01 -2.3714507e-02 
7.1253967e-01 6.3881129e-01 -3.0237170e-02 
7.0329601e-01 6.2953734e-01 -2.5427917e-02 
7.0371020e-01 6.2991703e-01 -1.5911253e-02 
7.0790231e-01 6.3415408e-01 -2.6896650e-02 
7.0128495e-01 6.2751293e-01 -2.2284586e-02 
7.0136869e-01 6.2756878e-01 -1.5492048e-02 
7.0351112e-01 6.2975192e-01 -2.5885839e-02 
7.0018560e-01 6.2638110e-01 -1.4564224e-02 
6.9855207e-01 6.2476182e-01 -1.8444948e-02 
6.9944179e-01 6.2568015e-01 -2.6370984e-02 
6.9996792e-01 6.2618184e-01 -1.8566027e-02 
6.9568503e-01 6.2190741e-01 -2.2113260e-02 
6.9576901e-01 6.2196189e-01 -1.5249755e-02 
6.9594622e-01 6.2218076e-01 -2.5263295e-02 
7.0433128e-01 6.3058650e-01 -3.0025046e-02 
6.9628334e-01 6.2248391e-01 -1.5610993e-02 
7.0003384e-01 6.2626225e-01 -2.3160631e-02 
6.9998783e-01 6.2622774e-01 -2.6772983e-02 
6.9293427e-01 6.1913955e-01 -1.8217629e-02 
6.9581616e-01 6.2204826e-01 -2.5677394e-02 
6.9268578e-01 6.1887717e-01 -1.4233444e-02 
6.9201046e-01 6.1824316e-01 -2.6200317e-02 
6.9360250e-01 6.1981356e-01 -1.8890429e-02 
6.9004643e-01 6.1626691e-01 -2.1940395e-02 
6.9013441e-01 6.1632717e-01 -1.5011409e-02 
6.8843895e-01 6.1467040e-01 -2.5090421e-02 
6.9613647e-01 6.2237918e-01 -2.9816397e-02 
6.8728185e-01 6.1348855e-01 -1.7995140e-02 
6.8870366e-01 6.1490148e-01 -1.5306617e-02 
6.9195282e-01 6.1818498e-01 -2.6542347e-02 
6.9112271e-01 6.1734527e-01 -2.3518477e-02 
6.8808985e-01 6.1431736e-01 -2.5468275e-02 
6.8437636e-01 6.1059815e-01 -2.1768937e-02 
6.8446296e-01 6.1065811e-01 -1.4770242e-02 
6.8503207e-01 6.1122286e-01 -1.3894657e-02 
6.8441969e-01 6.1065125e-01 -2.6022032e-02 
6.8595320e-01 6.1216378e-01 -1.9004688e-02 
6.8159282e-01 6.0780102e-01 -1.7769404e-02 
6.8077314e-01 6.0700470e-01 -2.4910524e-02 
6.8066239e-01 6.0687244e-01 -1.8440530e-02 
6.8795890e-01 6.1419719e-01 -2.9603541e-02 
6.8096578e-01 6.0716599e-01 -1.4998271e-02 
6.8400002e-01 6.1022848e-01 -2.6193414e-02 
6.7866999e-01 6.0489458e-01 -2.1589622e-02 
6.7875606e-01 6.0495245e-01 -1.4526092e-02 
6.8029606e-01 6.0652459e-01 -2.5266740e-02 
6.8300539e-01 6.0922700e-01 -2.3557626e-02 
6.7721629e-01 6.0341203e-01 -1.3553506e-02 
6.7586994e-01 6.0208094e-01 -1.7538413e-02 
6.7666364e-01 6.0289901e-01 -2.5837336e-02 
6.7802054e-01 6.0423654e-01 -1.8807201e-02 
6.7292595e-01 5.9915572e-01 -2.1413585e-02 
6.7301768e-01 5.9921962e-01 -1.4283239e-02 
6.7293262e-01 5.9917372e-01 -2.4722029e-02 
6.7979443e-01 6.0603160e-01 -2.9388795e-02 
6.7306399e-01 5.9927231e-01 -1.4686586e-02 
6.7601442e-01 6.0224575e-01 -2.5957806e-02 
6.7010987e-01 5.9632957e-01 -1.7311260e-02 
6.7240125e-01 5.9863758e-01 -2.5054734e-02 
6.7504877e-01 6.0127658e-01 -2.3698378e-02 
6.6890508e-01 5.9513789e-01 -1.9873815e-02 
6.6923380e-01 5.9544176e-01 -1.3202889e-02 
6.6873562e-01 5.9498155e-01 -2.5643144e-02 
6.6714758e-01 5.9338951e-01 -2.1235975e-02 
6.6983128e-01 5.9605938e-01 -1.8762590e-02 
6.6655171e-01 5.9276444e-01 -1.3722410e-02 
6.6492254e-01 5.9117711e-01 -2.4528587e-02 
6.6431171e-01 5.9054428e-01 -1.7080586e-02 
6.7165351e-01 5.9789854e-01 -2.9169688e-02 
6.6502720e-01 5.9125251e-01 -1.4794393e-02 
6.6775453e-01 5.9399879e-01 -2.5626164e-02 
6.6464955e-01 5.9089792e-01 -2.4891920e-02 
6.6735613e-01 5.9359831e-01 -2.4231752e-02 
6.6135025e-01 5.8760589e-01 -2.1031024e-02 
6.6144246e-01 5.8766943e-01 -1.3801510e-02 
6.6108030e-01 5.8730537e-01 -1.2849000e-02 
6.6066897e-01 5.8693302e-01 -2.5439611e-02 
6.5851897e-01 5.8476526e-01 -1.6852435e-02 
6.6006458e-01 5.8631378e-01 -1.8555179e-02 
6.5680003e-01 5.8307666e-01 -2.4328953e-02 
6.6354001e-01 5.8980054e-01 -2.8944422e-02 
6.5557581e-01 5.8184445e-01 -2.0809306e-02 
6.5567106e-01 5.8191162e-01 -1.3576665e-02 
6.5686142e-01 5.8310515e-01 -1.3988546e-02 
6.5925366e-01 5.8551413e-01 -2.4014419e-02 
6.5787452e-01 5.8414221e-01 -2.5389971e-02 
6.5514171e-01 5.8141708e-01 -2.4618454e-02 
6.5276486e-01 5.7902634e-01 -1.6628167e-02 
6.5296334e-01 5.7921076e-01 -1.2493633e-02 
6.5261555e-01 5.7890260e-01 -2.5242325e-02 
6.5249103e-01 5.7875925e-01 -1.6845055e-02 
6.4984381e-01 5.7613027e-01 -2.0585399e-02 
6.4962953e-01 5.7588631e-01 -1.3014980e-02 
6.4881039e-01 5.7511055e-01 -2.4129501e-02 
6.5544426e-01 5.8172667e-01 -2.8718470e-02 
6.4880341e-01 5.7507432e-01 -1.3598656e-02 
6.4705044e-01 5.7333148e-01 -1.6402099e-02 
6.4833850e-01 5.7463425e-01 -2.4480121e-02 
6.5048075e-01 5.7676512e-01 -2.1712130e-02 
6.5110898e-01 5.7740200e-01 -2.5897760e-02 
6.4780325e-01 5.7410121e-01 -2.4461444e-02 
6.4496619e-01 5.7124233e-01 -1.2150952e-02 
6.4414680e-01 5.7045478e-01 -2.0361084e-02 
6.4424384e-01 5.7052338e-01 -1.3134308e-02 
6.4469403e-01 5.7100505e-01 -2.5041202e-02 
6.4449954e-01 5.7079625e-01 -1.6377550e-02 
6.4137650e-01 5.6768197e-01 -1.6180709e-02 
6.4095181e-01 5.6728017e-01 -2.3925047e-02 
6.4737046e-01 5.7368135e-01 -2.8499901e-02 
6.4086866e-01 5.6717128e-01 -1.3219727e-02 
6.3925016e-01 5.6555092e-01 -1.2519326e-02 
6.3849676e-01 5.6482905e-01 -2.0135352e-02 
6.4048660e-01 5.6680918e-01 -2.4287757e-02 
6.4304698e-01 5.6936771e-01 -2.5678704e-02 
6.4310008e-01 5.6941468e-01 -2.3576444e-02 
6.3709122e-01 5.6340080e-01 -1.1815141e-02 
6.4007342e-01 5.6639045e-01 -1.9853918e-02 
6.3690096e-01 5.6324494e-01 -2.4838462e-02 
6.3574731e-01 5.6207550e-01 -1.5958991e-02 
6.3862920e-01 5.6495953e-01 -2.4198230e-02 
6.3663161e-01 5.6296259e-01 -1.5923217e-02 
6.3288373e-01 5.5923969e-01 -1.9913550e-02 
6.3321918e-01 5.5958480e-01 -2.3723606e-02 
6.3930565e-01 5.6564415e-01 -2.8265657e-02 
6.3305497e-01 5.5939549e-01 -1.2850485e-02 
6.3197696e-01 5.5831170e-01 -1.2150458e-02 
6.3276362e-01 5.5912334e-01 -2.4096319e-02 
6.3015026e-01 5.5651015e-01 -1.5741780e-02 
6.3499784e-01 5.6134671e-01 -2.5457015e-02 
6.3504821e-01 5.6139189e-01 -2.3356091e-02 
6.2933457e-01 5.5568701e-01 -1.1485904e-02 
6.2923479e-01 5.5561930e-01 -2.4635239e-02 
6.2730819e-01 5.5369747e-01 -1.9687623e-02 
6.2740695e-01 5.5376774e-01 -1.2489087e-02 
6.3071913e-01 5.5708194e-01 -1.8968575e-02 
6.3060683e-01 5.5697548e-01 -2.3957977e-02 
6.2888426e-01 5.5525726e-01 -1.5481914e-02 
6.2629879e-01 5.5268031e-01 -1.5605723e-02 
6.2561542e-01 5.5202514e-01 -2.3519443e-02 
6.2459767e-01 5.5098951e-01 -1.5527109e-02 
6.3126636e-01 5.5763751e-01 -2.8030619e-02 
6.2458652e-01 5.5096525e-01 -1.1408220e-02 
6.2536198e-01 5.5174619e-01 -1.2492153e-02 
6.2516862e-01 5.5157089e-01 -2.3905417e-02 
6.2698007e-01 5.5337185e-01 -2.5230693e-02 
6.2702715e-01 5.5341542e-01 -2.3134246e-02 
6.2177777e-01 5.4820436e-01 -1.9462774e-02 
6.2187034e-01 5.4826814e-01 -1.2281199e-02 
6.2164831e-01 5.4806483e-01 -1.7314229e-02 
6.2169379e-01 5.4809505e-01 -1.1169526e-02 
6.2175953e-01 5.4817903e-01 -1.8340418e-02 
6.2169999e-01 5.4812866e-01 -2.4427475e-02 
6.2272012e-01 5.4913604e-01 -1.8761523e-02 
6.2261474e-01 5.4903263e-01 -2.3714820e-02 
6.2125945e-01 5.4768032e-01 -1.5058309e-02 
6.1908811e-01 5.4551786e-01 -1.5309357e-02 
6.1907387e-01 5.4549146e-01 -1.1202925e-02 
6.1813706e-01 5.4459631e-01 -2.3306599e-02 
6.1693394e-01 5.4336834e-01 -1.2361635e-02 
6.1778122e-01 5.4421961e-01 -1.2140327e-02 
6.2325817e-01 5.4967618e-01 -2.7792081e-02 
6.1695808e-01 5.4340309e-01 -1.5286645e-02 
6.1628842e-01 5.4275155e-01 -1.9237569e-02 
6.1770397e-01 5.4415792e-01 -2.3720184e-02 
6.1899292e-01 5.4543984e-01 -2.5002085e-02 
6.1903709e-01 5.4548174e-01 -2.2910208e-02 
6.1362159e-01 5.4009289e-01 -1.5100921e-02 
6.1417460e-01 5.4063350e-01 -1.0858155e-02 
6.1427951e-01 5.4076409e-01 -2.4218846e-02 
6.1374843e-01 5.4022616e-01 -1.4631884e-02 
6.1475104e-01 5.4122275e-01 -1.8561274e-02 
6.1465162e-01 5.4112679e-01 -2.3476344e-02 
6.1084360e-01 5.3734934e-01 -1.9017745e-02 
6.1126685e-01 5.3776032e-01 -1.5379027e-02 
6.1093456e-01 5.3741807e-01 -1.1876209e-02 
6.1077875e-01 5.3729337e-01 -2.3101514e-02 
6.1031890e-01 5.3681397e-01 -1.1799057e-02 
6.1528295e-01 5.4175681e-01 -2.7548848e-02 
6.1035621e-01 5.3686541e-01 -2.3527011e-02 
6.0819459e-01 5.3471166e-01 -1.4888566e-02 
6.0817939e-01 5.3468424e-01 -1.0784655e-02 
6.0693687e-01 5.3347033e-01 -1.8198965e-02 
6.0698938e-01 5.3353041e-01 -2.4010327e-02 
6.0676563e-01 5.3328556e-01 -1.0555534e-02 
6.1103880e-01 5.3754491e-01 -2.4769729e-02 
6.1108047e-01 5.3758454e-01 -2.2682074e-02 
6.0604715e-01 5.3258342e-01 -1.5160455e-02 
6.0577047e-01 5.3231645e-01 -1.7325513e-02 
6.0543340e-01 5.3198719e-01 -1.8796632e-02 
6.0552669e-01 5.3205931e-01 -1.1674090e-02 
6.0634845e-01 5.3288925e-01 -1.4223811e-02 
6.0680902e-01 5.3334910e-01 -1.8350905e-02 
6.0671502e-01 5.3325641e-01 -2.3231661e-02 
6.0354340e-01 5.3012013e-01 -2.2891469e-02 
6.0280597e-01 5.2937526e-01 -1.4681660e-02 
6.0279191e-01 5.2934897e-01 -1.0583568e-02 
6.0297555e-01 5.2954066e-01 -1.1469730e-02 
6.0312468e-01 5.2969581e-01 -2.3343801e-02 
6.0733747e-01 5.3387338e-01 -2.7301904e-02 
6.0006398e-01 5.2666962e-01 -1.8577237e-02 
6.0016114e-01 5.2674544e-01 -1.1474972e-02 
5.9976065e-01 5.2636117e-01 -1.6712159e-02 
5.9981495e-01 5.2642304e-01 -2.3801615e-02 
5.9946853e-01 5.2605957e-01 -1.0252707e-02 
6.0310996e-01 5.2968329e-01 -2.4533933e-02 
6.0314959e-01 5.2972132e-01 -2.2451336e-02 
5.9745681e-01 5.2407914e-01 -1.4481918e-02 