# vtk DataFile Version 4.0
vtk output
ASCII
DATASET UNSTRUCTURED_GRID
POINTS 6166 float
-4.3633327e-01 9.6409470e-01 4.4200001e+01 
-4.3633261e-01 9.6409082e-01 4.4079685e+01 
-3.2145375e-01 9.1276109e-01 4.4200001e+01 
-3.8566181e-01 8.4097892e-01 4.4200001e+01 
-3.3069235e-01 9.1895354e-01 4.4019413e+01 
-3.8473952e-01 8.3919770e-01 4.4024357e+01 
-4.3633196e-01 9.6408689e-01 4.3958702e+01 
-2.1293370e-01 8.4677851e-01 4.4200001e+01 
-2.9042658e-01 7.3813015e-01 4.4200001e+01 
-2.1019450e-01 8.4669626e-01 4.4077393e+01 
-2.8909999e-01 7.3605996e-01 4.4073399e+01 
-3.2963324e-01 9.1929907e-01 4.3898094e+01 
-3.8679782e-01 8.4179753e-01 4.3889645e+01 
-2.0740938e-01 8.4661204e-01 4.3952713e+01 
-4.3633130e-01 9.6408290e-01 4.3837040e+01 
-1.1677200e-01 7.7521002e-01 4.4200001e+01 
-2.8775173e-01 7.3395580e-01 4.3944717e+01 
-1.9365783e-01 6.6203654e-01 4.4200001e+01 
-1.1309985e-01 7.7540898e-01 4.4012005e+01 
-1.9181472e-01 6.5888047e-01 4.4006447e+01 
-3.2856464e-01 9.1964108e-01 4.3776085e+01 
-3.8823184e-01 8.4352189e-01 4.3765770e+01 
-2.0457739e-01 8.4652513e-01 4.3825886e+01 
-2.8638119e-01 7.3181647e-01 4.3813885e+01 
-4.3633065e-01 9.6407896e-01 4.3714680e+01 
-1.0911675e-01 7.7426714e-01 4.3886200e+01 
-2.1001574e-02 6.8269837e-01 4.4200001e+01 
-1.8902887e-01 6.5566909e-01 4.3876659e+01 
-7.8887597e-02 5.9015810e-01 4.4200001e+01 
-3.2748649e-01 9.1997939e-01 4.3653378e+01 
-3.9889076e-01 8.5876143e-01 4.3651733e+01 
-2.0169757e-01 8.4643483e-01 4.3696846e+01 
-7.2496021e-03 6.7325598e-01 4.3947758e+01 
-1.0504345e-01 7.7307969e-01 4.3758209e+01 
-2.8498772e-01 7.2964084e-01 4.3680840e+01 
-6.3224643e-02 5.7783771e-01 4.3940754e+01 
3.5808440e-02 6.2679136e-01 4.4056572e+01 
-1.8616955e-01 6.5238589e-01 4.3744686e+01 
-4.3632996e-01 9.6407503e-01 4.3591618e+01 
-9.8678423e-03 5.4892725e-01 4.4055367e+01 
-1.8652271e-02 6.8798620e-01 4.3834026e+01 
-7.9845116e-02 5.8636194e-01 4.3823372e+01 
8.7777540e-02 5.7885915e-01 4.4200001e+01 
5.3622175e-02 5.1732427e-01 4.4200001e+01 
-3.2639861e-01 9.2031354e-01 4.3529953e+01 
-3.9894739e-01 8.5844576e-01 4.3528313e+01 
-1.9876897e-01 8.4634024e-01 4.3565521e+01 
-1.0087753e-01 7.7184403e-01 4.3627972e+01 
-2.8357074e-01 7.2742778e-01 4.3545506e+01 
-1.8323407e-01 6.4902818e-01 4.3610458e+01 
-4.3632931e-01 9.6407109e-01 4.3467831e+01 
3.1033519e-03 6.6751039e-01 4.3691772e+01 
-5.3600248e-02 5.6906003e-01 4.3676846e+01 
1.2436585e-01 5.5082864e-01 4.3886215e+01 
1.7079005e-01 5.1095647e-01 4.4054855e+01 
1.4951277e-01 4.6697062e-01 4.4053665e+01 
1.0028158e-01 4.8915190e-01 4.3877911e+01 
-4.0513036e-01 8.6722642e-01 4.3405304e+01 
-3.2530096e-01 9.2064321e-01 4.3405800e+01 
-9.6616447e-02 7.7055699e-01 4.3495411e+01 
-8.4563000e-03 6.8258613e-01 4.3574005e+01 
-1.9579062e-01 8.4624058e-01 4.3431831e+01 
2.1753120e-01 4.7335833e-01 4.4200001e+01 
2.0360756e-01 4.4289169e-01 4.4200001e+01 
-1.8021962e-01 6.4559317e-01 4.3473904e+01 
-7.0636064e-02 5.7773441e-01 4.3555408e+01 
-2.8212959e-01 7.2517604e-01 4.3407806e+01 
-4.3632865e-01 9.6406716e-01 4.3343307e+01 
1.3810426e-01 5.4143524e-01 4.3628246e+01 
-3.2419339e-01 9.2096806e-01 4.3280907e+01 
-3.9903235e-01 8.5775709e-01 4.3279266e+01 
-9.2257597e-02 7.6921552e-01 4.3360443e+01 
1.1508528e-01 4.7804743e-01 4.3612068e+01 
-1.9276154e-01 8.4613472e-01 4.3295704e+01 
1.4013666e-02 6.6131532e-01 4.3426643e+01 
-1.7712323e-01 6.4207786e-01 4.3334946e+01 
-2.8066361e-01 7.2288430e-01 4.3267666e+01 
-4.3382257e-02 5.5983055e-01 4.3403778e+01 
-4.3632799e-01 9.6406323e-01 4.3218033e+01 
3.7877345e-01 3.8273901e-01 4.4200001e+01 
3.9076596e-01 3.7443376e-01 4.3993755e+01 
-3.2307580e-01 9.2128778e-01 4.3155251e+01 
-3.9906058e-01 8.5738426e-01 4.3153610e+01 
-8.7798268e-02 7.6781619e-01 4.3222996e+01 
1.9689407e-02 6.5803534e-01 4.3290459e+01 
-6.0862999e-02 5.6866169e-01 4.3278019e+01 
-1.8968078e-01 8.4602165e-01 4.3157055e+01 
-1.7394182e-01 6.3847917e-01 4.3193501e+01 
-4.3632734e-01 9.6405929e-01 4.3091995e+01 
4.0275589e-01 3.6612594e-01 4.3787510e+01 
1.2304078e-01 5.5709994e-01 4.3330139e+01 
-2.7917209e-01 7.2055119e-01 4.3125000e+01 
2.5336364e-01 4.4907436e-01 4.3468094e+01 
2.3670304e-01 4.1684708e-01 4.3469433e+01 
1.3086085e-01 4.6634668e-01 4.3336948e+01 
-3.8351217e-01 8.3473074e-01 4.3036392e+01 
-3.2194808e-01 9.2160189e-01 4.3028820e+01 
2.5518833e-02 6.5462554e-01 4.3151749e+01 
-8.3235659e-02 7.6635528e-01 4.3082981e+01 
4.1474071e-01 3.5781288e-01 4.3581264e+01 
-1.8654740e-01 8.4590012e-01 4.3015797e+01 
-3.2522827e-02 5.5011308e-01 4.3120937e+01 
-1.7067213e-01 6.3479382e-01 4.3049488e+01 
-4.3632668e-01 9.6405542e-01 4.2965172e+01 
-2.7765438e-01 7.1817529e-01 4.2979721e+01 
2.6620242e-01 4.4011977e-01 4.3261948e+01 
1.3584816e-02 6.7044950e-01 4.3025066e+01 
-3.2081014e-01 9.2191011e-01 4.2901604e+01 
-3.8160574e-01 8.3169121e-01 4.2902863e+01 
-7.8566879e-02 7.6482886e-01 4.2940315e+01 
-5.0480481e-02 5.5910730e-01 4.2990566e+01 
4.2671782e-01 3.4949207e-01 4.3375019e+01 
1.6821145e-01 5.2049083e-01 4.3083881e+01 
-1.8336046e-01 8.4576881e-01 4.2871841e+01 
-4.3632606e-01 9.6405160e-01 4.2837555e+01 
-1.6731077e-01 6.3101834e-01 4.2902817e+01 
1.4768846e-01 4.5400122e-01 4.3051926e+01 
-2.7610970e-01 7.1575516e-01 4.2831745e+01 
-3.1966189e-01 9.2221189e-01 4.2773579e+01 
-3.8560396e-01 8.3684862e-01 4.2767078e+01 
3.7660085e-02 6.4738947e-01 4.2866421e+01 
-7.3788933e-02 7.6323271e-01 4.2794899e+01 
4.3868470e-01 3.4116083e-01 4.3168777e+01 
-4.3632543e-01 9.6404779e-01 4.2709122e+01 
-2.0968946e-02 5.3986710e-01 4.2827656e+01 
-1.8011902e-01 8.4562629e-01 4.2725094e+01 
-1.6385415e-01 6.2714905e-01 4.2753403e+01 
-2.7453732e-01 7.1328926e-01 4.2680973e+01 
-3.1850323e-01 9.2250693e-01 4.2644733e+01 
-3.9907700e-01 8.5570478e-01 4.2643101e+01 
2.5504474e-02 6.6361672e-01 4.2734810e+01 
1.8471870e-01 5.0880390e-01 4.2796177e+01 
-6.8898737e-02 7.6156229e-01 4.2646645e+01 
-3.9438177e-02 5.4903054e-01 4.2692345e+01 
-4.3632481e-01 9.6404403e-01 4.2579861e+01 
4.5063871e-01 3.3281663e-01 4.2962532e+01 
1.6565691e-01 4.4095638e-01 4.2756321e+01 
-1.7682223e-01 8.4547096e-01 4.2575459e+01 
-1.6029853e-01 6.2318206e-01 4.2601143e+01 
-4.0415615e-01 8.6278629e-01 4.2516582e+01 
-3.1733403e-01 9.2279470e-01 4.2515053e+01 
-2.7293649e-01 7.1077597e-01 4.2527313e+01 
5.0482783e-02 6.3954860e-01 4.2569923e+01 
-4.3632418e-01 9.6404034e-01 4.2449757e+01 
-6.3893095e-02 7.5981271e-01 4.2495445e+01 
-8.6617703e-03 5.2904755e-01 4.2523201e+01 
-1.7346917e-01 8.4530097e-01 4.2422829e+01 
-1.5663996e-01 6.1911333e-01 4.2445942e+01 
3.0435190e-01 4.1341871e-01 4.2643494e+01 
4.6257737e-01 3.2445681e-01 4.2756287e+01 
-3.1615424e-01 9.2307472e-01 4.2384518e+01 
-3.9902648e-01 8.5475212e-01 4.2382885e+01 
-2.7130640e-01 7.0821363e-01 4.2370659e+01 
3.8079392e-02 6.5619886e-01 4.2433029e+01 
2.0230262e-01 4.9620378e-01 4.2497147e+01 
-4.3632355e-01 9.6403670e-01 4.2318787e+01 
-5.8768708e-02 7.5797862e-01 4.2341198e+01 
-2.7680276e-02 5.3838593e-01 4.2382599e+01 
1.8486446e-01 4.2715022e-01 4.2449394e+01 
-3.8436696e-01 8.3356136e-01 4.2264896e+01 
8.9545198e-02 5.3233254e-01 4.2382050e+01 
-3.3225983e-01 9.3122375e-01 4.2255634e+01 
-1.7005907e-01 8.4511453e-01 4.2267101e+01 
-1.5287429e-01 6.1493850e-01 4.2287693e+01 
4.7449806e-01 3.1607881e-01 4.2550037e+01 
-2.6964626e-01 7.0560038e-01 4.2210907e+01 
-4.3632296e-01 9.6403313e-01 4.2186939e+01 
6.4036883e-02 6.3103610e-01 4.2261456e+01 
-5.3522192e-02 7.5605446e-01 4.2183796e+01 
-3.7873057e-01 8.2541841e-01 4.2124020e+01 
-3.1376252e-01 9.2360973e-01 4.2120819e+01 
4.4639236e-03 5.1760370e-01 4.2206776e+01 
-1.6659111e-01 8.4490943e-01 4.2108162e+01 
-1.4899719e-01 6.1065292e-01 4.2126286e+01 
-4.3632239e-01 9.6402961e-01 4.2054195e+01 
4.8639825e-01 3.0768004e-01 4.2343792e+01 
-2.6795524e-01 7.0293444e-01 4.2047943e+01 
2.4746621e-01 4.6040925e-01 4.2191032e+01 
7.1105182e-02 6.2650448e-01 4.2102463e+01 
-3.1255043e-01 9.2386365e-01 4.1987617e+01 
-4.8150036e-02 7.5403398e-01 4.2023121e+01 
-1.5144684e-02 5.2712250e-01 4.2060505e+01 
-3.7995064e-01 8.2661813e-01 4.1980038e+01 
2.0541981e-01 4.1251117e-01 4.2130333e+01 
-1.6306458e-01 8.4468329e-01 4.1945896e+01 
-4.3632182e-01 9.6402621e-01 4.1920536e+01 
-1.4500406e-01 6.0625184e-01 4.1961609e+01 
1.3375351e-01 5.6370503e-01 4.1969833e+01 
-2.6623246e-01 7.0021385e-01 4.1881653e+01 
-3.1132740e-01 9.2410773e-01 4.1853493e+01 
-3.9880505e-01 8.5261923e-01 4.1851868e+01 
4.9827534e-01 2.9925787e-01 4.2137547e+01 
3.4194937e-01 3.8685825e-01 4.2025021e+01 
-4.2648647e-02 7.5191063e-01 4.1859051e+01 
-2.5401810e-01 7.9503769e-01 4.1808533e+01 
1.8480448e-02 5.0547802e-01 4.1877510e+01 
-4.3632126e-01 9.6402287e-01 4.1785946e+01 
-1.5947884e-01 8.4443361e-01 4.1780174e+01 
-1.4089009e-01 6.0172999e-01 4.1793541e+01 
-3.1009343e-01 9.2434150e-01 4.1718426e+01 
-4.0306881e-01 8.5845691e-01 4.1716179e+01 
8.5861288e-02 6.1683756e-01 4.1774368e+01 
-2.6447710e-01 6.9743657e-01 4.1711910e+01 
3.0427080e-01 4.1638452e-01 4.1839512e+01 
2.6751360e-01 3.7833902e-01 4.1830902e+01 
5.1012677e-01 2.9080975e-01 4.1931297e+01 
-3.7014309e-02 7.4967718e-01 4.1691463e+01 
-4.3632072e-01 9.6401966e-01 4.1650398e+01 
2.5847588e-02 4.9913955e-01 4.1707767e+01 
-1.5583332e-01 8.4415752e-01 4.1610870e+01 
-3.8322043e-01 8.2981020e-01 4.1595791e+01 
-3.0884841e-01 9.2456430e-01 4.1582397e+01 
-1.3665022e-01 5.9708190e-01 4.1621960e+01 
9.3565010e-02 6.1167872e-01 4.1605015e+01 
-2.6268822e-01 6.9460052e-01 4.1538593e+01 
-4.3632022e-01 9.6401656e-01 4.1513885e+01 
-3.1243213e-02 7.4732590e-01 4.1520226e+01 
2.7603787e-01 3.7115356e-01 4.1624012e+01 
2.8505871e-01 4.3281260e-01 4.1611507e+01 
5.2195001e-01 2.8233302e-01 4.1725052e+01 
3.3468332e-02 4.9260557e-01 4.1534447e+01 
-3.9853087e-01 8.5081697e-01 4.1443768e+01 
-3.2560509e-01 9.3245691e-01 4.1443577e+01 
-1.5212752e-01 8.4385180e-01 4.1437847e+01 
-1.3227913e-01 5.9230179e-01 4.1446728e+01 
-4.3631971e-01 9.6401358e-01 4.1376381e+01 
[...]
POINT_DATA 6166
FIELD FieldData 5
DISPLACEMENT 3 6166  float
5.3800130e-01 4.9233577e-01 -1.0207974e-02 
5.3499264e-01 4.8929396e-01 -1.0131776e-02 
5.3803986e-01 4.9244645e-01 -1.1787605e-02 
5.3816432e-01 4.9241674e-01 -8.3674164e-03 
5.3351802e-01 4.8787135e-01 -1.1598442e-02 
5.3377444e-01 4.8797747e-01 -8.2344133e-03 
5.3196740e-01 4.8623532e-01 -1.0055144e-02 
5.3810167e-01 4.9255666e-01 -1.2838107e-02 
5.3828388e-01 4.9252781e-01 -8.1543159e-03 
5.3503501e-01 4.8945922e-01 -1.2827038e-02 
5.3512061e-01 4.8932880e-01 -8.0551580e-03 
5.3048348e-01 4.8480496e-01 -1.1556898e-02 
5.3040272e-01 4.8456931e-01 -8.1633572e-03 
5.3191644e-01 4.8630929e-01 -1.2815732e-02 
5.2892518e-01 4.8315960e-01 -9.9780727e-03 
5.3817552e-01 4.9265850e-01 -1.3438161e-02 
5.3190535e-01 4.8607725e-01 -7.9543954e-03 
5.3836411e-01 4.9263161e-01 -8.6552594e-03 
5.3347307e-01 4.8790854e-01 -1.3416180e-02 
5.3352809e-01 4.8774070e-01 -8.4992591e-03 
5.2743185e-01 4.8172128e-01 -1.1515024e-02 
5.2730316e-01 4.8143598e-01 -8.0927070e-03 
5.2874434e-01 4.8310524e-01 -1.2804133e-02 
5.2863652e-01 4.8277155e-01 -7.8520067e-03 
5.2586579e-01 4.8006654e-01 -9.9005550e-03 
5.3032750e-01 4.8473144e-01 -1.3407412e-02 
5.3828001e-01 4.9276677e-01 -1.3499523e-02 
5.3028619e-01 4.8446265e-01 -8.4058437e-03 
5.3843266e-01 4.9274889e-01 -9.7132819e-03 
5.2436292e-01 4.7862008e-01 -1.1472796e-02 
5.2443308e-01 4.7853971e-01 -8.1386827e-03 
5.2551699e-01 4.7984543e-01 -1.2792185e-02 
5.3198165e-01 4.8640364e-01 -1.3445761e-02 
5.2712756e-01 4.8149937e-01 -1.3398353e-02 
5.2531236e-01 4.7941002e-01 -7.7479617e-03 
5.3196269e-01 4.8621127e-01 -9.6302833e-03 
5.3475678e-01 4.8920506e-01 -1.3419164e-02 
5.2698994e-01 4.8112962e-01 -8.3111683e-03 
5.2278894e-01 4.7695583e-01 -9.8225838e-03 
5.3485405e-01 4.8916194e-01 -1.0308415e-02 
5.2911985e-01 4.8351419e-01 -1.3460300e-02 
5.2902001e-01 4.8322713e-01 -9.3552666e-03 
5.3839684e-01 4.9288946e-01 -1.3600481e-02 
5.3849703e-01 4.9288109e-01 -1.1191265e-02 
5.2127635e-01 4.7550118e-01 -1.1430196e-02 
5.2134764e-01 4.7542009e-01 -8.0513349e-03 
5.2223271e-01 4.7652811e-01 -1.2779843e-02 
5.2387154e-01 4.7821069e-01 -1.3388884e-02 
5.2193135e-01 4.7599092e-01 -7.6421774e-03 
5.2363747e-01 4.7773987e-01 -8.2151024e-03 
5.1969427e-01 4.7382721e-01 -9.7440490e-03 
5.2558553e-01 4.7994199e-01 -1.3397790e-02 
5.2537274e-01 4.7954968e-01 -9.4827162e-03 
5.3057915e-01 4.8499468e-01 -1.3610034e-02 
5.3483981e-01 4.8930952e-01 -1.3872016e-02 
5.3488070e-01 4.8927608e-01 -1.2227644e-02 
5.3046858e-01 4.8478475e-01 -1.1444092e-02 
5.1826179e-01 4.7230357e-01 -8.0406843e-03 
5.1817179e-01 4.7236416e-01 -1.1387164e-02 
5.2055770e-01 4.7486356e-01 -1.3378982e-02 
5.2262264e-01 4.7695044e-01 -1.3414484e-02 
5.1888973e-01 4.7315150e-01 -1.2767055e-02 
5.3850961e-01 4.9302998e-01 -1.4184496e-02 
5.3855830e-01 4.9302828e-01 -1.3066387e-02 
5.2022713e-01 4.7429174e-01 -8.1178024e-03 
5.2232897e-01 4.7646311e-01 -9.1987057e-03 
5.1849145e-01 4.7251260e-01 -7.5347698e-03 
5.1658154e-01 4.7068053e-01 -9.6651800e-03 
5.2413732e-01 4.7848642e-01 -1.3553483e-02 
5.1504904e-01 4.6920910e-01 -1.1343881e-02 
5.1512295e-01 4.6912670e-01 -7.8748595e-03 
5.1718420e-01 4.7145629e-01 -1.3368513e-02 
5.2383173e-01 4.7807884e-01 -1.1366166e-02 
5.1548612e-01 4.6971393e-01 -1.2753663e-02 
5.1896191e-01 4.7325039e-01 -1.3346491e-02 
5.1675719e-01 4.7078341e-01 -8.0191996e-03 
5.1499110e-01 4.6897313e-01 -7.4254475e-03 
5.1855487e-01 4.7265816e-01 -9.3332781e-03 
5.1345050e-01 4.6751538e-01 -9.5857428e-03 
5.3859091e-01 4.9319157e-01 -1.5932672e-02 
5.3344125e-01 4.8798886e-01 -1.5892630e-02 
5.1190788e-01 4.6603516e-01 -1.1300213e-02 
5.1198322e-01 4.6595237e-01 -7.7856006e-03 
5.1374924e-01 4.6798709e-01 -1.3357379e-02 
5.1556033e-01 4.6981403e-01 -1.3319241e-02 
5.1540369e-01 4.6946302e-01 -9.0397540e-03 
5.1201999e-01 4.6621338e-01 -1.2739529e-02 
5.1322579e-01 4.6721321e-01 -7.9192845e-03 
5.1030076e-01 4.6433166e-01 -9.5058400e-03 
5.2829152e-01 4.8278609e-01 -1.5852463e-02 
5.1666546e-01 4.7093275e-01 -1.3382925e-02 
5.1142830e-01 4.6537092e-01 -7.3143756e-03 
5.2023005e-01 4.7456080e-01 -1.4005077e-02 
5.2031535e-01 4.7459134e-01 -1.2774897e-02 
5.1696414e-01 4.7114018e-01 -1.1291640e-02 
5.0908190e-01 4.6301159e-01 -7.5292224e-03 
5.0874799e-01 4.6284270e-01 -1.1255818e-02 
5.1209635e-01 4.6631491e-01 -1.3291094e-02 
5.1025081e-01 4.6445400e-01 -1.3345589e-02 
5.2314198e-01 4.7758359e-01 -1.5811939e-02 
5.0848949e-01 4.6264794e-01 -1.2725041e-02 
5.1149487e-01 4.6552283e-01 -9.1820341e-03 
5.0963074e-01 4.6357909e-01 -7.8176977e-03 
5.0713229e-01 4.6112907e-01 -9.4253216e-03 
5.0780094e-01 4.6170372e-01 -7.2014639e-03 
5.1508451e-01 4.6936232e-01 -1.3969340e-02 
5.0891155e-01 4.6309990e-01 -1.3311393e-02 
5.0556898e-01 4.5963138e-01 -1.1211049e-02 
5.0574952e-01 4.5964241e-01 -7.4161831e-03 
5.0668681e-01 4.6085492e-01 -1.3333007e-02 
5.0822949e-01 4.6221238e-01 -8.8781035e-03 
5.1799262e-01 4.7238034e-01 -1.5770428e-02 
5.1054823e-01 4.6475780e-01 -1.3433445e-02 
5.0489241e-01 4.5901558e-01 -1.2709669e-02 
5.0394446e-01 4.5790726e-01 -9.3441736e-03 
5.0597036e-01 4.5987922e-01 -7.7150469e-03 
5.0985157e-01 4.6395528e-01 -1.1221915e-02 
5.0410700e-01 4.5796975e-01 -7.0866742e-03 
5.0237054e-01 4.5640063e-01 -1.1165836e-02 
5.0235188e-01 4.5621023e-01 -7.3611992e-03 
5.0497317e-01 4.5912006e-01 -1.3231101e-02 
5.0305521e-01 4.5718792e-01 -1.3319473e-02 
5.1284385e-01 4.6717855e-01 -1.5728774e-02 
5.0073719e-01 4.5466641e-01 -9.2627537e-03 
5.0417715e-01 4.5812839e-01 -9.0287812e-03 
5.0122672e-01 4.5531431e-01 -1.2693270e-02 
5.0224209e-01 4.5611134e-01 -7.6105846e-03 
5.0034469e-01 4.5416713e-01 -6.9701597e-03 
4.9915293e-01 4.5315066e-01 -1.1119870e-02 
4.9923363e-01 4.5306581e-01 -7.4222474e-03 
5.0166649e-01 4.5578250e-01 -1.3252533e-02 
5.0337058e-01 4.5750797e-01 -1.3369502e-02 
4.9935398e-01 4.5345089e-01 -1.3304721e-02 
5.0079018e-01 4.5469540e-01 -8.7137287e-03 
4.9751070e-01 4.5140639e-01 -9.1810524e-03 
5.0769693e-01 4.6197960e-01 -1.5686760e-02 
5.0247818e-01 4.5650807e-01 -1.1156642e-02 
4.9749032e-01 4.5154232e-01 -1.2675894e-02 
4.9844477e-01 4.5227399e-01 -7.5052823e-03 
4.9606699e-01 4.4986919e-01 -7.3947380e-03 
4.9591571e-01 4.4988194e-01 -1.1073803e-02 
4.9651203e-01 4.5029369e-01 -6.8514305e-03 
4.9757627e-01 4.5164984e-01 -1.3165209e-02 
4.9426436e-01 4.4812658e-01 -9.0985131e-03 
4.9558142e-01 4.4964248e-01 -1.3288696e-02 
4.9658611e-01 4.5045981e-01 -8.8743530e-03 
4.9368119e-01 4.4769725e-01 -1.2657389e-02 
4.9457622e-01 4.4836518e-01 -7.3978757e-03 
4.9965674e-01 4.5378053e-01 -1.3858601e-02 
5.0255215e-01 4.5678368e-01 -1.5644031e-02 
4.9265826e-01 4.4659233e-01 -1.1027303e-02 
4.9274173e-01 4.4650644e-01 -7.2373603e-03 
4.9260652e-01 4.4634765e-01 -6.7305043e-03 
4.9414024e-01 4.4818333e-01 -1.3187826e-02 
4.9591631e-01 4.4998059e-01 -1.3302181e-02 
4.9099779e-01 4.4482702e-01 -9.0158284e-03 
4.9173421e-01 4.4575939e-01 -1.3271943e-02 
4.9307013e-01 4.4689739e-01 -8.5474020e-03 
4.9482819e-01 4.4878450e-01 -1.1096828e-02 
4.8982513e-01 4.4355306e-01 -6.9970698e-03 
4.9302834e-01 4.4697830e-01 -1.1322211e-02 
4.8943818e-01 4.4333082e-01 -1.0747707e-02 
4.8979649e-01 4.4377655e-01 -1.2637711e-02 
4.9063286e-01 4.4438207e-01 -7.2896318e-03 
4.9740937e-01 4.5158944e-01 -1.5599345e-02 
4.8862574e-01 4.4232652e-01 -6.6081481e-03 
4.8771152e-01 4.4150814e-01 -8.9325272e-03 
4.8988748e-01 4.4388744e-01 -1.3093179e-02 
4.8781073e-01 4.4179958e-01 -1.3253420e-02 
4.8632345e-01 4.4001451e-01 -6.8453006e-03 
4.8608366e-01 4.3995479e-01 -1.0931604e-02 
4.8870319e-01 4.4249937e-01 -8.7183760e-03 
4.8583442e-01 4.3977836e-01 -1.2617219e-02 
4.8661295e-01 4.4032237e-01 -7.1791341e-03 
4.8440450e-01 4.3816867e-01 -8.8483477e-03 
4.9226898e-01 4.4639969e-01 -1.5554355e-02 
4.8456752e-01 4.3822789e-01 -6.4835735e-03 
4.8831552e-01 4.4231248e-01 -1.3335649e-02 
4.8592848e-01 4.3989098e-01 -1.3054729e-02 
4.8276514e-01 4.3660611e-01 -1.0882962e-02 
4.8380810e-01 4.3776086e-01 -1.3233052e-02 
4.8504961e-01 4.3879911e-01 -8.3789472e-03 
4.8273504e-01 4.3639201e-01 -6.7557422e-03 
4.8688301e-01 4.4076550e-01 -1.1042750e-02 
4.8179218e-01 4.3570012e-01 -1.2594895e-02 
4.8107618e-01 4.3480876e-01 -8.7633394e-03 
4.8251480e-01 4.3618488e-01 -7.0681036e-03 
4.8269275e-01 4.3662319e-01 -1.2954611e-02 
4.8042965e-01 4.3405029e-01 -6.3572591e-03 
4.7942573e-01 4.3323696e-01 -1.0833316e-02 
4.7951403e-01 4.3314916e-01 -6.8602334e-03 
4.8713380e-01 4.4121683e-01 -1.5508453e-02 
4.8425215e-01 4.3823081e-01 -1.3737981e-02 
4.7972474e-01 4.3364152e-01 -1.3210752e-02 
4.7847217e-01 4.3219373e-01 -8.9949109e-03 
4.8051080e-01 4.3423045e-01 -8.5615981e-03 
4.7772780e-01 4.3142998e-01 -8.6781243e-03 
4.7766808e-01 4.3154100e-01 -1.2569406e-02 
4.7833651e-01 4.3196759e-01 -6.9567189e-03 
4.7606599e-01 4.2984807e-01 -1.0783155e-02 
4.7613263e-01 4.2973971e-01 -6.8176123e-03 
4.7776723e-01 4.3165654e-01 -1.2969068e-02 
4.7621009e-01 4.2979223e-01 -6.2295701e-03 
4.7960058e-01 4.3352541e-01 -1.3423945e-02 
4.7945094e-01 4.3329221e-01 -1.1547431e-02 
4.8200032e-01 4.3603531e-01 -1.5459903e-02 
4.7555876e-01 4.2944023e-01 -1.3186004e-02 
4.7435865e-01 4.2803136e-01 -8.5933702e-03 
4.7629365e-01 4.2997646e-01 -8.4838578e-03 
4.7345996e-01 4.2729798e-01 -1.2542626e-02 
4.7317517e-01 4.2674693e-01 -6.5213665e-03 
4.7268671e-01 4.2644045e-01 -1.0731473e-02 
4.7407460e-01 4.2766824e-01 -6.8420852e-03 
4.7356245e-01 4.2741579e-01 -1.2924068e-02 
4.7190747e-01 4.2545125e-01 -6.0992455e-03 
4.7097057e-01 4.2461318e-01 -8.5079875e-03 
4.7130620e-01 4.2515361e-01 -1.3159162e-02 
4.7431138e-01 4.2810726e-01 -1.1451302e-02 
4.7391176e-01 4.2778096e-01 -1.3213002e-02 
4.7687283e-01 4.3086231e-01 -1.5410240e-02 
4.7199240e-01 4.2563918e-01 -8.4056174e-03 
4.6937865e-01 4.2292362e-01 -6.5734517e-03 
4.6923679e-01 4.2295042e-01 -1.0423951e-02 
4.6916407e-01 4.2296922e-01 -1.2514618e-02 
4.6972826e-01 4.2328537e-01 -6.7273946e-03 
4.6756008e-01 4.2117438e-01 -8.4209628e-03 
4.6993032e-01 4.2375195e-01 -1.2825289e-02 
4.6751797e-01 4.2102507e-01 -5.9676957e-03 
4.6696594e-01 4.2078012e-01 -1.3130136e-02 
4.6586475e-01 4.1956434e-01 -1.0628214e-02 
4.6595666e-01 4.1947466e-01 -6.4763241e-03 
4.6760488e-01 4.2121705e-01 -8.3275530e-03 
4.6943060e-01 4.2319313e-01 -1.1525150e-02 
4.7175279e-01 4.2569911e-01 -1.5359004e-02 
4.6477938e-01 4.1855177e-01 -1.2484315e-02 
4.6857288e-01 4.2240551e-01 -1.3291256e-02 
4.6412787e-01 4.1771576e-01 -8.3323158e-03 
4.6529403e-01 4.1881588e-01 -6.6112834e-03 
4.6543258e-01 4.1921958e-01 -1.2762000e-02 
4.6242061e-01 4.1609576e-01 -1.0574646e-02 
4.6251374e-01 4.1600674e-01 -6.3785780e-03 
4.6303940e-01 4.1651121e-01 -5.8336505e-03 
4.6253437e-01 4.1631663e-01 -1.3098910e-02 
4.6312839e-01 4.1670761e-01 -8.2494421e-03 
4.6067417e-01 4.1423738e-01 -8.2446607e-03 
4.6452487e-01 4.1824293e-01 -1.1280385e-02 
4.6664092e-01 4.2054656e-01 -1.5305207e-02 
4.6030146e-01 4.1404316e-01 -1.2451711e-02 
4.6076882e-01 4.1425735e-01 -6.4936914e-03 
4.6361926e-01 4.1741693e-01 -1.3279689e-02 
4.5895538e-01 4.1260636e-01 -1.0520168e-02 
4.5905015e-01 4.1251794e-01 -6.2808236e-03 
4.6072823e-01 4.1448179e-01 -1.2706179e-02 
4.5846817e-01 4.1190726e-01 -5.6974120e-03 
4.5719928e-01 4.1073781e-01 -8.1574265e-03 
4.5800793e-01 4.1176057e-01 -1.3065024e-02 
4.5855927e-01 4.1210741e-01 -8.1714736e-03 
4.5546952e-01 4.0909794e-01 -1.0465275e-02 
4.5556486e-01 4.0900749e-01 -6.1814878e-03 
4.5572710e-01 4.0944067e-01 -1.2417345e-02 
4.6153808e-01 4.1540530e-01 -1.5249248e-02 
4.5614961e-01 4.0960723e-01 -6.3747191e-03 
4.5873591e-01 4.1240609e-01 -1.1021821e-02 
4.5870617e-01 4.1247177e-01 -1.3275228e-02 
4.5370239e-01 4.0721765e-01 -8.0676302e-03 
4.5594394e-01 4.0966609e-01 -1.2647307e-02 
4.5380154e-01 4.0721026e-01 -5.5600507e-03 
4.5338455e-01 4.0710932e-01 -1.3027598e-02 
4.5461962e-01 4.0815696e-01 -8.4301261e-03 
4.5195961e-01 4.0556750e-01 -1.0409775e-02 
4.5205769e-01 4.0547958e-01 -6.0846698e-03 
4.5105419e-01 4.0474138e-01 -1.2379279e-02 
4.5644283e-01 4.1027457e-01 -1.5195198e-02 
4.5018354e-01 4.0367961e-01 -7.9808477e-03 
4.5143482e-01 4.0486327e-01 -6.2543331e-03 
4.5370817e-01 4.0744120e-01 -1.3206031e-02 
4.5321110e-01 4.0686208e-01 -1.1325737e-02 
4.5112836e-01 4.0482152e-01 -1.2589321e-02 
4.4842955e-01 4.0201911e-01 -1.0355099e-02 
4.4852722e-01 4.0193003e-01 -5.9861960e-03 
4.4903859e-01 4.0241861e-01 -5.4189265e-03 
4.4866142e-01 4.0236062e-01 -1.2986677e-02 
4.4987449e-01 4.0339383e-01 -8.5704401e-03 
4.4664168e-01 4.0011823e-01 -7.8924363e-03 
4.4628212e-01 3.9994445e-01 -1.2337964e-02 
4.4623667e-01 3.9972791e-01 -8.3018979e-03 
4.5135787e-01 4.0515906e-01 -1.5138567e-02 
4.4662112e-01 4.0002310e-01 -6.1326846e-03 
4.4875041e-01 4.0245113e-01 -1.3062888e-02 
4.4487682e-01 3.9844853e-01 -1.0295937e-02 
4.4497436e-01 3.9835709e-01 -5.8862418e-03 
4.4626883e-01 3.9993668e-01 -1.2536638e-02 
4.4817093e-01 4.0180051e-01 -1.1424109e-02 
4.4417411e-01 3.9752853e-01 -5.2773994e-03 
4.4307849e-01 3.9653605e-01 -7.8008822e-03 
4.4383508e-01 3.9751127e-01 -1.2942988e-02 
4.4494286e-01 3.9843950e-01 -8.5197277e-03 
4.4130018e-01 3.9485571e-01 -1.0239032e-02 
4.4140154e-01 3.9476696e-01 -5.7870522e-03 
4.4140074e-01 3.9504352e-01 -1.2292881e-02 
4.4628093e-01 4.0005389e-01 -1.5080410e-02 
4.4170493e-01 3.9508364e-01 -6.0100816e-03 
4.4378248e-01 3.9745781e-01 -1.2989552e-02 
4.3949160e-01 3.9293435e-01 -7.7117998e-03 
4.4135240e-01 3.9499879e-01 -1.2477609e-02 
4.4323260e-01 3.9684820e-01 -1.1583727e-02 
4.3890688e-01 3.9241609e-01 -9.3045328e-03 
4.3920538e-01 3.9253810e-01 -5.1312144e-03 
4.3890107e-01 3.9255798e-01 -1.2894805e-02 
4.3770182e-01 3.9124522e-01 -1.0181054e-02 
4.3985578e-01 3.9333707e-01 -8.5654035e-03 
4.3739939e-01 3.9074111e-01 -5.4934062e-03 
4.3641305e-01 3.9003804e-01 -1.2246006e-02 
4.3588099e-01 3.8931081e-01 -7.6207481e-03 
4.4121745e-01 3.9496779e-01 -1.5019358e-02 
4.3672460e-01 3.9009541e-01 -6.1479216e-03 
4.3863437e-01 3.9228714e-01 -1.2859819e-02 
4.3651065e-01 3.9013973e-01 -1.2449090e-02 
4.3846667e-01 3.9208317e-01 -1.1985136e-02 
4.3409094e-01 3.8762274e-01 -1.0106426e-02 
4.3419310e-01 3.8753253e-01 -5.5916165e-03 
4.3412906e-01 3.8744274e-01 -4.9841348e-03 
4.3387878e-01 3.8752007e-01 -1.2842171e-02 
4.3227312e-01 3.8569093e-01 -7.5310632e-03 
4.3378228e-01 3.8724554e-01 -8.5242754e-03 
4.3135467e-01 3.8496673e-01 -1.2195996e-02 
4.3616980e-01 3.8990206e-01 -1.4953667e-02 
4.3049338e-01 3.8401273e-01 -1.0020874e-02 
4.3059722e-01 3.8392487e-01 -5.5035618e-03 
4.3161848e-01 3.8495994e-01 -5.7213968e-03 
4.3342596e-01 3.8702673e-01 -1.1923702e-02 
4.3249086e-01 3.8612574e-01 -1.2802725e-02 
4.3059370e-01 3.8420725e-01 -1.2365131e-02 
4.2868873e-01 3.8209614e-01 -7.4431850e-03 
4.2907473e-01 3.8237301e-01 -4.8355344e-03 
4.2886037e-01 3.8248971e-01 -1.2793247e-02 
4.2902222e-01 3.8243619e-01 -7.5305933e-03 
4.2692181e-01 3.8043195e-01 -9.9332649e-03 
4.2685947e-01 3.8016826e-01 -5.2048112e-03 
4.2637804e-01 3.7997887e-01 -1.2144653e-02 
4.3113244e-01 3.8485047e-01 -1.4887217e-02 
4.2659867e-01 3.7992686e-01 -5.5508236e-03 
4.2512897e-01 3.7852821e-01 -7.3537696e-03 
4.2634481e-01 3.7994963e-01 -1.2342247e-02 
4.2791328e-01 3.8144952e-01 -1.0572189e-02 
4.2833781e-01 3.8198251e-01 -1.3176046e-02 
4.2614257e-01 3.7974682e-01 -1.2323063e-02 
4.2409411e-01 3.7738156e-01 -4.6932655e-03 
4.2337179e-01 3.7687513e-01 -9.8452345e-03 
4.2347640e-01 3.7678877e-01 -5.3303172e-03 
4.2392334e-01 3.7754184e-01 -1.2740676e-02 
4.2404148e-01 3.7744102e-01 -7.3113488e-03 
4.2159361e-01 3.7498853e-01 -7.2666621e-03 
4.2148206e-01 3.7507492e-01 -1.2089056e-02 
4.2610753e-01 3.7981635e-01 -1.4824794e-02 
4.2165449e-01 3.7497291e-01 -5.3854552e-03 
4.2039952e-01 3.7369749e-01 -4.9874121e-03 
4.1985014e-01 3.7334862e-01 -9.7556431e-03 
4.2144763e-01 3.7504369e-01 -1.2294791e-02 
4.2332038e-01 3.7695524e-01 -1.3113012e-02 
4.2337379e-01 3.7695426e-01 -1.1797809e-02 
4.1918832e-01 3.7246850e-01 -4.5537488e-03 
4.2139450e-01 3.7487876e-01 -9.5103597e-03 
4.1906539e-01 3.7267894e-01 -1.2685687e-02 
4.1808546e-01 3.7147477e-01 -7.1788994e-03 
4.2043397e-01 3.7402758e-01 -1.2242171e-02 
4.1913629e-01 3.7252587e-01 -7.0988568e-03 
4.1635090e-01 3.6984456e-01 -9.6681239e-03 
4.1666365e-01 3.7025458e-01 -1.2033585e-02 
4.2108703e-01 3.7478557e-01 -1.4753001e-02 
4.1678455e-01 3.7009770e-01 -5.2245827e-03 
4.1587371e-01 3.6916569e-01 -4.8213354e-03 
4.1662991e-01 3.7022412e-01 -1.2246413e-02 
4.1459686e-01 3.6798653e-01 -7.0933406e-03 
4.1830936e-01 3.7193507e-01 -1.3048088e-02 
4.1836101e-01 3.7193307e-01 -1.1733284e-02 
4.1435522e-01 3.6763451e-01 -4.4166888e-03 
4.1428536e-01 3.6789912e-01 -1.2629107e-02 
4.1287488e-01 3.6636943e-01 -9.5772995e-03 
4.1298026e-01 3.6628535e-01 -5.0777625e-03 
4.1555330e-01 3.6902019e-01 -9.0431795e-03 
4.1543996e-01 3.6903018e-01 -1.2165119e-02 
4.1430521e-01 3.6769021e-01 -6.8926499e-03 
4.1243729e-01 3.6582571e-01 -7.0186690e-03 
4.1192397e-01 3.6551777e-01 -1.1975071e-02 
4.1113544e-01 3.6452606e-01 -7.0086350e-03 
4.1608068e-01 3.6977208e-01 -1.4680083e-02 
4.1132402e-01 3.6460647e-01 -4.4175419e-03 
4.1198841e-01 3.6530066e-01 -5.0686961e-03 
4.1189057e-01 3.6548662e-01 -1.2197148e-02 
4.1331634e-01 3.6694151e-01 -1.2979698e-02 
4.1336584e-01 3.6693862e-01 -1.1667264e-02 
4.0942615e-01 3.6292434e-01 -9.4864946e-03 
4.0952772e-01 3.6283702e-01 -4.9968748e-03 
4.0947270e-01 3.6291215e-01 -8.1335334e-03 
4.0959290e-01 3.6287570e-01 -4.2862557e-03 
4.0963691e-01 3.6310232e-01 -8.7641142e-03 
4.0958574e-01 3.6320221e-01 -1.2568387e-02 
4.1057178e-01 3.6404547e-01 -8.9852158e-03 
4.1046304e-01 3.6405665e-01 -1.2085496e-02 
4.0954864e-01 3.6293373e-01 -6.6953874e-03 
4.0770030e-01 3.6109507e-01 -6.9216881e-03 
4.0788552e-01 3.6117333e-01 -4.3375259e-03 
4.0726158e-01 3.6086121e-01 -1.1910221e-02 
4.0643376e-01 3.5975540e-01 -5.0920020e-03 
4.0726072e-01 3.6057875e-01 -4.9155708e-03 
4.1109207e-01 3.6478499e-01 -1.4604446e-02 
4.0660739e-01 3.6000374e-01 -6.9027944e-03 
4.0600237e-01 3.5950384e-01 -9.3953768e-03 
4.0723121e-01 3.6083505e-01 -1.2149405e-02 
4.0834069e-01 3.6197305e-01 -1.2909267e-02 
4.0838835e-01 3.6196920e-01 -1.1599314e-02 
4.0429077e-01 3.5769293e-01 -6.8396353e-03 
4.0490448e-01 3.5819668e-01 -4.1573094e-03 
4.0495652e-01 3.5858300e-01 -1.2505740e-02 
4.0486181e-01 3.5825253e-01 -6.4959303e-03 
4.0560699e-01 3.5908970e-01 -8.9306571e-03 
4.0550247e-01 3.5910493e-01 -1.2007774e-02 
4.0260521e-01 3.5611406e-01 -9.3066487e-03 
4.0304002e-01 3.5645428e-01 -7.0124958e-03 
4.0270546e-01 3.5603088e-01 -4.8396462e-03 
4.0267223e-01 3.5628250e-01 -1.1848400e-02 
4.0260571e-01 3.5593212e-01 -4.7674496e-03 
4.0612245e-01 3.5982251e-01 -1.4525274e-02 
4.0264329e-01 3.5625765e-01 -1.2096010e-02 
4.0090525e-01 3.5431701e-01 -6.7548105e-03 
4.0108722e-01 3.5439208e-01 -4.1716094e-03 
4.0038949e-01 3.5388395e-01 -8.8080717e-03 
4.0040678e-01 3.5404435e-01 -1.2441572e-02 
4.0028378e-01 3.5358810e-01 -4.0321033e-03 
4.0338400e-01 3.5702628e-01 -1.2835841e-02 
4.0342999e-01 3.5702118e-01 -1.1528132e-02 
3.9976546e-01 3.5318810e-01 -6.9237510e-03 
3.9951164e-01 3.5299164e-01 -8.2871076e-03 
3.9922917e-01 3.5274875e-01 -9.2165256e-03 
3.9933065e-01 3.5266829e-01 -4.7604465e-03 
4.0024287e-01 3.5364383e-01 -6.3060732e-03 
4.0065759e-01 3.5415682e-01 -8.8692885e-03 
4.0055692e-01 3.5417345e-01 -1.1925988e-02 
3.9815825e-01 3.5178310e-01 -1.1782329e-02 
3.9754289e-01 3.5096857e-01 -6.6726464e-03 
3.9772412e-01 3.5104311e-01 -4.0924405e-03 
3.9802244e-01 3.5136589e-01 -4.6252748e-03 
3.9812696e-01 3.5175648e-01 -1.2046780e-02 
4.0116972e-01 3.5488081e-01 -1.4443279e-02 
3.9587772e-01 3.4941068e-01 -9.1268849e-03 
3.9598122e-01 3.4933299e-01 -4.6825362e-03 
3.9581504e-01 3.4929857e-01 -7.9515697e-03 
3.9592764e-01 3.4958324e-01 -1.2375793e-02 
3.9573073e-01 3.4905389e-01 -3.9057694e-03 
3.9844143e-01 3.5209852e-01 -1.2759790e-02 
3.9848608e-01 3.5209256e-01 -1.1454829e-02 
3.9420423e-01 3.4764495e-01 -6.5941801e-03 