# vtk DataFile Version 4.0
vtk output
ASCII
DATASET UNSTRUCTURED_GRID
POINTS 6166 float
-4.3633327e-01 9.6409470e-01 4.4200001e+01 
-4.3633261e-01 9.6409082e-01 4.4079685e+01 
-3.2145375e-01 9.1276109e-01 4.4200001e+01 
-3.8566181e-01 8.4097892e-01 4.4200001e+01 
-3.3069235e-01 9.1895354e-01 4.4019413e+01 
-3.8473952e-01 8.3919770e-01 4.4024357e+01 
-4.3633196e-01 9.6408689e-01 4.3958702e+01 
-2.1293370e-01 8.4677851e-01 4.4200001e+01 
-2.9042658e-01 7.3813015e-01 4.4200001e+01 
-2.1019450e-01 8.4669626e-01 4.4077393e+01 
-2.8909999e-01 7.3605996e-01 4.4073399e+01 
-3.2963324e-01 9.1929907e-01 4.3898094e+01 
-3.8679782e-01 8.4179753e-01 4.3889645e+01 
-2.0740938e-01 8.4661204e-01 4.3952713e+01 
-4.3633130e-01 9.6408290e-01 4.3837040e+01 
-1.1677200e-01 7.7521002e-01 4.4200001e+01 
-2.8775173e-01 7.3395580e-01 4.3944717e+01 
-1.9365783e-01 6.6203654e-01 4.4200001e+01 
-1.1309985e-01 7.7540898e-01 4.4012005e+01 
-1.9181472e-01 6.5888047e-01 4.4006447e+01 
-3.2856464e-01 9.1964108e-01 4.3776085e+01 
-3.8823184e-01 8.4352189e-01 4.3765770e+01 
-2.0457739e-01 8.4652513e-01 4.3825886e+01 
-2.8638119e-01 7.3181647e-01 4.3813885e+01 
-4.3633065e-01 9.6407896e-01 4.3714680e+01 
-1.0911675e-01 7.7426714e-01 4.3886200e+01 
-2.1001574e-02 6.8269837e-01 4.4200001e+01 
-1.8902887e-01 6.5566909e-01 4.3876659e+01 
-7.8887597e-02 5.9015810e-01 4.4200001e+01 
-3.2748649e-01 9.1997939e-01 4.3653378e+01 
-3.9889076e-01 8.5876143e-01 4.3651733e+01 
-2.0169757e-01 8.4643483e-01 4.3696846e+01 
-7.2496021e-03 6.7325598e-01 4.3947758e+01 
-1.0504345e-01 7.7307969e-01 4.3758209e+01 
-2.8498772e-01 7.2964084e-01 4.3680840e+01 
-6.3224643e-02 5.7783771e-01 4.3940754e+01 
3.5808440e-02 6.2679136e-01 4.4056572e+01 
-1.8616955e-01 6.5238589e-01 4.3744686e+01 
-4.3632996e-01 9.6407503e-01 4.3591618e+01 
-9.8678423e-03 5.4892725e-01 4.4055367e+01 
-1.8652271e-02 6.8798620e-01 4.3834026e+01 
-7.9845116e-02 5.8636194e-01 4.3823372e+01 
8.7777540e-02 5.7885915e-01 4.4200001e+01 
5.3622175e-02 5.1732427e-01 4.4200001e+01 
-3.2639861e-01 9.2031354e-01 4.3529953e+01 
-3.9894739e-01 8.5844576e-01 4.3528313e+01 
-1.9876897e-01 8.4634024e-01 4.3565521e+01 
-1.0087753e-01 7.7184403e-01 4.3627972e+01 
-2.8357074e-01 7.2742778e-01 4.3545506e+01 
-1.8323407e-01 6.4902818e-01 4.3610458e+01 
-4.3632931e-01 9.6407109e-01 4.3467831e+01 
3.1033519e-03 6.6751039e-01 4.3691772e+01 
-5.3600248e-02 5.6906003e-01 4.3676846e+01 
1.2436585e-01 5.5082864e-01 4.3886215e+01 
1.7079005e-01 5.1095647e-01 4.4054855e+01 
1.4951277e-01 4.6697062e-01 4.4053665e+01 
1.0028158e-01 4.8915190e-01 4.3877911e+01 
-4.0513036e-01 8.6722642e-01 4.3405304e+01 
-3.2530096e-01 9.2064321e-01 4.3405800e+01 
-9.6616447e-02 7.7055699e-01 4.3495411e+01 
-8.4563000e-03 6.8258613e-01 4.3574005e+01 
-1.9579062e-01 8.4624058e-01 4.3431831e+01 
2.1753120e-01 4.7335833e-01 4.4200001e+01 
2.0360756e-01 4.4289169e-01 4.4200001e+01 
-1.8021962e-01 6.4559317e-01 4.3473904e+01 
-7.0636064e-02 5.7773441e-01 4.3555408e+01 
-2.8212959e-01 7.2517604e-01 4.3407806e+01 
-4.3632865e-01 9.6406716e-01 4.3343307e+01 
1.3810426e-01 5.4143524e-01 4.3628246e+01 
-3.2419339e-01 9.2096806e-01 4.3280907e+01 
-3.9903235e-01 8.5775709e-01 4.3279266e+01 
-9.2257597e-02 7.6921552e-01 4.3360443e+01 
1.1508528e-01 4.7804743e-01 4.3612068e+01 
-1.9276154e-01 8.4613472e-01 4.3295704e+01 
1.4013666e-02 6.6131532e-01 4.3426643e+01 
-1.7712323e-01 6.4207786e-01 4.3334946e+01 
-2.8066361e-01 7.2288430e-01 4.3267666e+01 
-4.3382257e-02 5.5983055e-01 4.3403778e+01 
-4.3632799e-01 9.6406323e-01 4.3218033e+01 
3.7877345e-01 3.8273901e-01 4.4200001e+01 
3.9076596e-01 3.7443376e-01 4.3993755e+01 
-3.2307580e-01 9.2128778e-01 4.3155251e+01 
-3.9906058e-01 8.5738426e-01 4.3153610e+01 
-8.7798268e-02 7.6781619e-01 4.3222996e+01 
1.9689407e-02 6.5803534e-01 4.3290459e+01 
-6.0862999e-02 5.6866169e-01 4.3278019e+01 
-1.8968078e-01 8.4602165e-01 4.3157055e+01 
-1.7394182e-01 6.3847917e-01 4.3193501e+01 
-4.3632734e-01 9.6405929e-01 4.3091995e+01 
4.0275589e-01 3.6612594e-01 4.3787510e+01 
1.2304078e-01 5.5709994e-01 4.3330139e+01 
-2.7917209e-01 7.2055119e-01 4.3125000e+01 
2.5336364e-01 4.4907436e-01 4.3468094e+01 
2.3670304e-01 4.1684708e-01 4.3469433e+01 
1.3086085e-01 4.6634668e-01 4.3336948e+01 
-3.8351217e-01 8.3473074e-01 4.3036392e+01 
-3.2194808e-01 9.2160189e-01 4.3028820e+01 
2.5518833e-02 6.5462554e-01 4.3151749e+01 
-8.3235659e-02 7.6635528e-01 4.3082981e+01 
4.1474071e-01 3.5781288e-01 4.3581264e+01 
-1.8654740e-01 8.4590012e-01 4.3015797e+01 
-3.2522827e-02 5.5011308e-01 4.3120937e+01 
-1.7067213e-01 6.3479382e-01 4.3049488e+01 
-4.3632668e-01 9.6405542e-01 4.2965172e+01 
-2.7765438e-01 7.1817529e-01 4.2979721e+01 
2.6620242e-01 4.4011977e-01 4.3261948e+01 
1.3584816e-02 6.7044950e-01 4.3025066e+01 
-3.2081014e-01 9.2191011e-01 4.2901604e+01 
-3.8160574e-01 8.3169121e-01 4.2902863e+01 
-7.8566879e-02 7.6482886e-01 4.2940315e+01 
-5.0480481e-02 5.5910730e-01 4.2990566e+01 
4.2671782e-01 3.4949207e-01 4.3375019e+01 
1.6821145e-01 5.2049083e-01 4.3083881e+01 
-1.8336046e-01 8.4576881e-01 4.2871841e+01 
-4.3632606e-01 9.6405160e-01 4.2837555e+01 
-1.6731077e-01 6.3101834e-01 4.2902817e+01 
1.4768846e-01 4.5400122e-01 4.3051926e+01 
-2.7610970e-01 7.1575516e-01 4.2831745e+01 
-3.1966189e-01 9.2221189e-01 4.2773579e+01 
-3.8560396e-01 8.3684862e-01 4.2767078e+01 
3.7660085e-02 6.4738947e-01 4.2866421e+01 
-7.3788933e-02 7.6323271e-01 4.2794899e+01 
4.3868470e-01 3.4116083e-01 4.3168777e+01 
-4.3632543e-01 9.6404779e-01 4.2709122e+01 
-2.0968946e-02 5.3986710e-01 4.2827656e+01 
-1.8011902e-01 8.4562629e-01 4.2725094e+01 
-1.6385415e-01 6.2714905e-01 4.2753403e+01 
-2.7453732e-01 7.1328926e-01 4.2680973e+01 
-3.1850323e-01 9.2250693e-01 4.2644733e+01 
-3.9907700e-01 8.5570478e-01 4.2643101e+01 
2.5504474e-02 6.6361672e-01 4.2734810e+01 
1.8471870e-01 5.0880390e-01 4.2796177e+01 
-6.8898737e-02 7.6156229e-01 4.2646645e+01 
-3.9438177e-02 5.4903054e-01 4.2692345e+01 
-4.3632481e-01 9.6404403e-01 4.2579861e+01 
4.5063871e-01 3.3281663e-01 4.2962532e+01 
1.6565691e-01 4.4095638e-01 4.2756321e+01 
-1.7682223e-01 8.4547096e-01 4.2575459e+01 
-1.6029853e-01 6.2318206e-01 4.2601143e+01 
-4.0415615e-01 8.6278629e-01 4.2516582e+01 
-3.1733403e-01 9.2279470e-01 4.2515053e+01 
-2.7293649e-01 7.1077597e-01 4.2527313e+01 
5.0482783e-02 6.3954860e-01 4.2569923e+01 
-4.3632418e-01 9.6404034e-01 4.2449757e+01 
-6.3893095e-02 7.5981271e-01 4.2495445e+01 
-8.6617703e-03 5.2904755e-01 4.2523201e+01 
-1.7346917e-01 8.4530097e-01 4.2422829e+01 
-1.5663996e-01 6.1911333e-01 4.2445942e+01 
3.0435190e-01 4.1341871e-01 4.2643494e+01 
4.6257737e-01 3.2445681e-01 4.2756287e+01 
-3.1615424e-01 9.2307472e-01 4.2384518e+01 
-3.9902648e-01 8.5475212e-01 4.2382885e+01 
-2.7130640e-01 7.0821363e-01 4.2370659e+01 
3.8079392e-02 6.5619886e-01 4.2433029e+01 
2.0230262e-01 4.9620378e-01 4.2497147e+01 
-4.3632355e-01 9.6403670e-01 4.2318787e+01 
-5.8768708e-02 7.5797862e-01 4.2341198e+01 
-2.7680276e-02 5.3838593e-01 4.2382599e+01 
1.8486446e-01 4.2715022e-01 4.2449394e+01 
-3.8436696e-01 8.3356136e-01 4.2264896e+01 
8.9545198e-02 5.3233254e-01 4.2382050e+01 
-3.3225983e-01 9.3122375e-01 4.2255634e+01 
-1.7005907e-01 8.4511453e-01 4.2267101e+01 
-1.5287429e-01 6.1493850e-01 4.2287693e+01 
4.7449806e-01 3.1607881e-01 4.2550037e+01 
-2.6964626e-01 7.0560038e-01 4.2210907e+01 
-4.3632296e-01 9.6403313e-01 4.2186939e+01 
6.4036883e-02 6.3103610e-01 4.2261456e+01 
-5.3522192e-02 7.5605446e-01 4.2183796e+01 
-3.7873057e-01 8.2541841e-01 4.2124020e+01 
-3.1376252e-01 9.2360973e-01 4.2120819e+01 
4.4639236e-03 5.1760370e-01 4.2206776e+01 
-1.6659111e-01 8.4490943e-01 4.2108162e+01 
-1.4899719e-01 6.1065292e-01 4.2126286e+01 
-4.3632239e-01 9.6402961e-01 4.2054195e+01 
4.8639825e-01 3.0768004e-01 4.2343792e+01 
-2.6795524e-01 7.0293444e-01 4.2047943e+01 
2.4746621e-01 4.6040925e-01 4.2191032e+01 
7.1105182e-02 6.2650448e-01 4.2102463e+01 
-3.1255043e-01 9.2386365e-01 4.1987617e+01 
-4.8150036e-02 7.5403398e-01 4.2023121e+01 
-1.5144684e-02 5.2712250e-01 4.2060505e+01 
-3.7995064e-01 8.2661813e-01 4.1980038e+01 
2.0541981e-01 4.1251117e-01 4.2130333e+01 
-1.6306458e-01 8.4468329e-01 4.1945896e+01 
-4.3632182e-01 9.6402621e-01 4.1920536e+01 
-1.4500406e-01 6.0625184e-01 4.1961609e+01 
1.3375351e-01 5.6370503e-01 4.1969833e+01 
-2.6623246e-01 7.0021385e-01 4.1881653e+01 
-3.1132740e-01 9.2410773e-01 4.1853493e+01 
-3.9880505e-01 8.5261923e-01 4.1851868e+01 
4.9827534e-01 2.9925787e-01 4.2137547e+01 
3.4194937e-01 3.8685825e-01 4.2025021e+01 
-4.2648647e-02 7.5191063e-01 4.1859051e+01 
-2.5401810e-01 7.9503769e-01 4.1808533e+01 
1.8480448e-02 5.0547802e-01 4.1877510e+01 
-4.3632126e-01 9.6402287e-01 4.1785946e+01 
-1.5947884e-01 8.4443361e-01 4.1780174e+01 
-1.4089009e-01 6.0172999e-01 4.1793541e+01 
-3.1009343e-01 9.2434150e-01 4.1718426e+01 
-4.0306881e-01 8.5845691e-01 4.1716179e+01 
8.5861288e-02 6.1683756e-01 4.1774368e+01 
-2.6447710e-01 6.9743657e-01 4.1711910e+01 
3.0427080e-01 4.1638452e-01 4.1839512e+01 
2.6751360e-01 3.7833902e-01 4.1830902e+01 
5.1012677e-01 2.9080975e-01 4.1931297e+01 
-3.7014309e-02 7.4967718e-01 4.1691463e+01 
-4.3632072e-01 9.6401966e-01 4.1650398e+01 
2.5847588e-02 4.9913955e-01 4.1707767e+01 
-1.5583332e-01 8.4415752e-01 4.1610870e+01 
-3.8322043e-01 8.2981020e-01 4.1595791e+01 
-3.0884841e-01 9.2456430e-01 4.1582397e+01 
-1.3665022e-01 5.9708190e-01 4.1621960e+01 
9.3565010e-02 6.1167872e-01 4.1605015e+01 
-2.6268822e-01 6.9460052e-01 4.1538593e+01 
-4.3632022e-01 9.6401656e-01 4.1513885e+01 
-3.1243213e-02 7.4732590e-01 4.1520226e+01 
2.7603787e-01 3.7115356e-01 4.1624012e+01 
2.8505871e-01 4.3281260e-01 4.1611507e+01 
5.2195001e-01 2.8233302e-01 4.1725052e+01 
3.3468332e-02 4.9260557e-01 4.1534447e+01 
-3.9853087e-01 8.5081697e-01 4.1443768e+01 
-3.2560509e-01 9.3245691e-01 4.1443577e+01 
-1.5212752e-01 8.4385180e-01 4.1437847e+01 
-1.3227913e-01 5.9230179e-01 4.1446728e+01 
-4.3631971e-01 9.6401358e-01 4.1376381e+01 
[...]
POINT_DATA 6166
FIELD FieldData 5
DISPLACEMENT 3 6166  float
5.7265586e-01 5.2303213e-01 -1.1521876e-02 
5.6923217e-01 5.1958960e-01 -1.1423687e-02 
5.7260984e-01 5.2296054e-01 -1.3320294e-02 
5.7263649e-01 5.2304173e-01 -9.4392588e-03 
5.6747484e-01 5.1779848e-01 -1.3087511e-02 
5.6763810e-01 5.1801616e-01 -9.2713172e-03 
5.6578952e-01 5.1612794e-01 -1.1324936e-02 
5.7256651e-01 5.2290010e-01 -1.4518514e-02 
5.7259887e-01 5.2300709e-01 -9.2043737e-03 
5.6907660e-01 5.1938987e-01 -1.4494117e-02 
5.6899577e-01 5.1938450e-01 -9.0796407e-03 
5.6402212e-01 5.1432621e-01 -1.3028579e-02 
5.6380558e-01 5.1416230e-01 -9.1773784e-03 
5.6552750e-01 5.1582021e-01 -1.4469252e-02 
5.6232750e-01 5.1264691e-01 -1.1225612e-02 
5.7252824e-01 5.2285188e-01 -1.5205314e-02 
5.6533349e-01 5.1570231e-01 -8.9528849e-03 
5.7256037e-01 5.2296025e-01 -9.7789112e-03 
5.6717724e-01 5.1746988e-01 -1.5162189e-02 
5.6705201e-01 5.1742208e-01 -9.5832245e-03 
5.6054991e-01 5.1083434e-01 -1.2969207e-02 
5.6028128e-01 5.1061845e-01 -9.0849977e-03 
5.6191748e-01 5.1218915e-01 -1.4443856e-02 
5.6161016e-01 5.1195878e-01 -8.8240756e-03 
5.5884582e-01 5.0914609e-01 -1.1125718e-02 
5.6359571e-01 5.1386744e-01 -1.5140187e-02 
5.7249027e-01 5.2281260e-01 -1.5281508e-02 
5.6335759e-01 5.1370752e-01 -9.4647957e-03 
5.7251453e-01 5.2289718e-01 -1.0986118e-02 
5.5705792e-01 5.0732255e-01 -1.2909367e-02 
5.5704063e-01 5.0735813e-01 -9.1251070e-03 
5.5824453e-01 5.0849497e-01 -1.4417855e-02 
5.6530708e-01 5.1558799e-01 -1.5196744e-02 
5.5995220e-01 5.1020277e-01 -1.5117630e-02 
5.5782390e-01 5.0815207e-01 -8.6931810e-03 
5.6513125e-01 5.1547194e-01 -1.0867701e-02 
5.6838644e-01 5.1868582e-01 -1.5180280e-02 
5.5960113e-01 5.0993061e-01 -9.3447333e-03 
5.5534422e-01 5.0562525e-01 -1.1025264e-02 
5.6837118e-01 5.1871997e-01 -1.1651285e-02 
5.6207532e-01 5.1233709e-01 -1.5201267e-02 
5.6179762e-01 5.1212323e-01 -1.0543310e-02 
5.7244712e-01 5.2276742e-01 -1.5403483e-02 
5.7246149e-01 5.2282017e-01 -1.2670550e-02 
5.5354571e-01 5.0379068e-01 -1.2849095e-02 
5.5352890e-01 5.0382739e-01 -9.0140076e-03 
5.5450672e-01 5.0473559e-01 -1.4391187e-02 
5.5624479e-01 5.0647378e-01 -1.5094414e-02 
5.5397266e-01 5.0428003e-01 -8.5600885e-03 
5.5578071e-01 5.0608945e-01 -9.2228930e-03 
5.5182225e-01 5.0208414e-01 -1.0924114e-02 
5.5801886e-01 5.0825787e-01 -1.5117948e-02 
5.5761772e-01 5.0791681e-01 -1.0675263e-02 
5.6350350e-01 5.1377094e-01 -1.5386024e-02 
5.6828386e-01 5.1857513e-01 -1.5702777e-02 
5.6825900e-01 5.1857632e-01 -1.3837512e-02 
5.6327742e-01 5.1357812e-01 -1.2928792e-02 
5.5003184e-01 5.0031018e-01 -8.9893611e-03 
5.5001307e-01 5.0023824e-01 -1.2788203e-02 
5.5247140e-01 5.0267857e-01 -1.5070460e-02 
5.5467260e-01 5.0489175e-01 -1.5124509e-02 
5.5070204e-01 5.0090897e-01 -1.4363770e-02 
5.7239550e-01 5.2270597e-01 -1.6074451e-02 
5.7240140e-01 5.2272969e-01 -1.4806288e-02 
5.5189431e-01 5.0218201e-01 -9.0994369e-03 
5.5416936e-01 5.0445294e-01 -1.0340242e-02 
5.5005461e-01 5.0034094e-01 -8.4249536e-03 
5.4827976e-01 4.9852240e-01 -1.0822508e-02 
5.5615741e-01 5.0638276e-01 -1.5297533e-02 
5.4645979e-01 4.9666533e-01 -1.2727023e-02 
5.4644400e-01 4.9670437e-01 -8.7894788e-03 
5.4863006e-01 4.9881512e-01 -1.5045647e-02 
5.5570680e-01 5.0596446e-01 -1.2815468e-02 
5.4682839e-01 4.9701330e-01 -1.4335451e-02 
5.5047107e-01 5.0066680e-01 -1.5034509e-02 
5.4793996e-01 4.9820638e-01 -8.9742756e-03 
5.4606748e-01 4.9633253e-01 -8.2873804e-03 
5.4984426e-01 5.0010073e-01 -1.0479805e-02 
5.4471636e-01 4.9493986e-01 -1.0720188e-02 
5.7233101e-01 5.2261305e-01 -1.8067036e-02 
5.6645727e-01 5.1670527e-01 -1.8002238e-02 
5.4288536e-01 4.9307102e-01 -1.2665261e-02 
5.4287028e-01 4.9311146e-01 -8.6760055e-03 
5.4471862e-01 4.9488148e-01 -1.5019869e-02 
5.4659474e-01 4.9676850e-01 -1.4990678e-02 
5.4627407e-01 4.9651468e-01 -1.0133557e-02 
5.4288352e-01 4.9304625e-01 -1.4306086e-02 
5.4391557e-01 4.9416050e-01 -8.8473707e-03 
5.4113168e-01 4.9133611e-01 -1.0617279e-02 
5.6058347e-01 5.1079762e-01 -1.7937250e-02 
5.4768199e-01 4.9786073e-01 -1.5073885e-02 
5.4200935e-01 4.9225307e-01 -8.1476383e-03 
5.5155456e-01 5.0174570e-01 -1.5801616e-02 
5.5159962e-01 5.0181055e-01 -1.4406629e-02 
5.4787290e-01 4.9808624e-01 -1.2705209e-02 
5.3953069e-01 4.8975709e-01 -8.3751548e-03 
5.3928959e-01 4.8945576e-01 -1.2602668e-02 
5.4264724e-01 4.9279904e-01 -1.4945513e-02 
5.4073489e-01 4.9087539e-01 -1.4993110e-02 
5.5471015e-01 5.0489062e-01 -1.7871846e-02 
5.3886539e-01 4.8900571e-01 -1.4276068e-02 
5.4179484e-01 4.9200779e-01 -1.0281491e-02 
5.3981870e-01 4.9004224e-01 -8.7183900e-03 
5.3752559e-01 4.8771101e-01 -1.0513651e-02 
5.3787780e-01 4.8809993e-01 -8.0055511e-03 
5.4568505e-01 4.9584264e-01 -1.5741752e-02 
5.3904969e-01 4.8918077e-01 -1.4955272e-02 
5.3567207e-01 4.8581907e-01 -1.2539681e-02 
5.3573340e-01 4.8594043e-01 -8.2341256e-03 
5.3667647e-01 4.8679453e-01 -1.4965162e-02 
5.3809506e-01 4.8829210e-01 -9.9229813e-03 
5.4883790e-01 4.9898452e-01 -1.7805407e-02 
5.4065984e-01 4.9079764e-01 -1.5109991e-02 
5.3477144e-01 4.8488936e-01 -1.4244752e-02 
5.3389734e-01 4.8406410e-01 -1.0409259e-02 
5.3564739e-01 4.8584932e-01 -8.5879648e-03 
5.3975970e-01 4.8992807e-01 -1.2599372e-02 
5.3367037e-01 4.8387131e-01 -7.8611430e-03 
5.3203243e-01 4.8216033e-01 -1.2475961e-02 
5.3187543e-01 4.8206204e-01 -8.1583019e-03 
5.3452969e-01 4.8463708e-01 -1.4850292e-02 
5.3254116e-01 4.8263666e-01 -1.4935923e-02 
5.4296595e-01 4.9307925e-01 -1.7738696e-02 
5.3024703e-01 4.8039556e-01 -1.0304474e-02 
5.3345168e-01 4.8362082e-01 -1.0079985e-02 
5.3059942e-01 4.8069501e-01 -1.4212061e-02 
5.3139889e-01 4.8157954e-01 -8.4552765e-03 
5.2938527e-01 4.7956488e-01 -7.7146022e-03 
5.2837086e-01 4.7847983e-01 -1.2411404e-02 
5.2835816e-01 4.7852498e-01 -8.2143964e-03 
5.3079414e-01 4.8088068e-01 -1.4860842e-02 
5.3247374e-01 4.8256710e-01 -1.5010336e-02 
5.2832651e-01 4.7839957e-01 -1.4904973e-02 
5.2961403e-01 4.7976741e-01 -9.7083868e-03 
5.2657497e-01 4.7670516e-01 -1.0199361e-02 
5.3709650e-01 4.8717767e-01 -1.7671315e-02 
5.3134906e-01 4.8147175e-01 -1.2497704e-02 
5.2634710e-01 4.7642064e-01 -1.4177939e-02 
5.2707177e-01 4.7723082e-01 -8.3214222e-03 
5.2476615e-01 4.7491494e-01 -8.1705907e-03 
5.2468705e-01 4.7477806e-01 -1.2346749e-02 
5.2502012e-01 4.7517827e-01 -7.5652148e-03 
5.2610010e-01 4.7616303e-01 -1.4747286e-02 
5.2288014e-01 4.7299260e-01 -1.0093215e-02 
5.2403063e-01 4.7408164e-01 -1.4872408e-02 
5.2479732e-01 4.7492298e-01 -9.8761898e-03 
5.2201176e-01 4.7206336e-01 -1.4142320e-02 
5.2266359e-01 4.7280133e-01 -8.1848148e-03 
5.2808827e-01 4.7815007e-01 -1.5557725e-02 
5.3122991e-01 4.8128003e-01 -1.7603053e-02 
5.2098036e-01 4.7105268e-01 -1.2281411e-02 
5.2096891e-01 4.7110015e-01 -7.9796836e-03 
5.2057201e-01 4.7070938e-01 -7.4131680e-03 
5.2221829e-01 4.7226107e-01 -1.4758813e-02 
5.2397215e-01 4.7402167e-01 -1.4905736e-02 
5.1916254e-01 4.6925738e-01 -9.9868737e-03 
5.1964974e-01 4.6967888e-01 -1.4838633e-02 
5.2081335e-01 4.7092390e-01 -9.4905086e-03 
5.2262348e-01 4.7270161e-01 -1.2401138e-02 
5.1761496e-01 4.6773306e-01 -7.6970961e-03 
5.2075040e-01 4.7081560e-01 -1.2643149e-02 
5.1732957e-01 4.6738809e-01 -1.1951035e-02 
5.1759082e-01 4.6762058e-01 -1.4105115e-02 
5.1817024e-01 4.6828741e-01 -8.0471085e-03 
5.2536577e-01 4.7538471e-01 -1.7532997e-02 
5.1603848e-01 4.6615556e-01 -7.2592637e-03 
5.1542246e-01 4.6550041e-01 -9.8798107e-03 
5.1733786e-01 4.6735761e-01 -1.4636353e-02 
5.1518214e-01 4.6518928e-01 -1.4802655e-02 
5.1361692e-01 4.6371856e-01 -7.5120642e-03 
5.1349896e-01 4.6353590e-01 -1.2147585e-02 
5.1581055e-01 4.6589381e-01 -9.6695200e-03 
5.1308179e-01 4.6309009e-01 -1.4066723e-02 
5.1358980e-01 4.6368691e-01 -7.9066018e-03 
5.1165909e-01 4.6172032e-01 -9.7717317e-03 
5.1950490e-01 4.6949488e-01 -1.7462069e-02 
5.1141679e-01 4.6151403e-01 -7.1025114e-03 
5.1526588e-01 4.6527144e-01 -1.4916585e-02 
5.1282620e-01 4.6282411e-01 -1.4577641e-02 
5.0972295e-01 4.5974377e-01 -1.2079886e-02 
5.1062447e-01 4.6061036e-01 -1.4764186e-02 
5.1167065e-01 4.6173981e-01 -9.2691462e-03 
5.0953585e-01 4.5962027e-01 -7.3967511e-03 
5.1356125e-01 4.6359524e-01 -1.2309933e-02 
5.0848168e-01 4.5846891e-01 -1.4025818e-02 
5.0787121e-01 4.5791703e-01 -9.6627129e-03 
5.0892049e-01 4.5899823e-01 -7.7653108e-03 
5.0904143e-01 4.5902377e-01 -1.4455283e-02 
5.0670487e-01 4.5678335e-01 -6.9437078e-03 
5.0592327e-01 4.5592836e-01 -1.2010755e-02 
5.0591338e-01 4.5598009e-01 -7.5015668e-03 
5.1365030e-01 4.6361324e-01 -1.7389877e-02 
5.1052153e-01 4.6049786e-01 -1.5362035e-02 
5.0597507e-01 4.5594028e-01 -1.4723193e-02 
5.0462908e-01 4.5465711e-01 -9.9267513e-03 
5.0647169e-01 4.5651481e-01 -9.4608692e-03 
5.0406080e-01 4.5409229e-01 -9.5532779e-03 
5.0378865e-01 4.5375654e-01 -1.3981026e-02 
5.0416023e-01 4.5421916e-01 -7.6233339e-03 
5.0210047e-01 4.5209083e-01 -1.1941043e-02 
5.0207567e-01 4.5212805e-01 -7.4402555e-03 
5.0352615e-01 4.5348388e-01 -1.4449281e-02 
5.0190020e-01 4.5196146e-01 -6.7831208e-03 
5.0528026e-01 4.5523801e-01 -1.4985308e-02 
5.0505090e-01 4.5503816e-01 -1.2856373e-02 
5.0779814e-01 4.5773357e-01 -1.7315019e-02 
5.0123191e-01 4.5117748e-01 -1.4679155e-02 
5.0022703e-01 4.5024511e-01 -9.4445394e-03 
5.0166500e-01 4.5168993e-01 -9.3572019e-03 
4.9900043e-01 4.4894940e-01 -1.3934420e-02 
4.9866429e-01 4.4870842e-01 -7.0948061e-03 
4.9825573e-01 4.4823238e-01 -1.1869554e-02 
4.9930504e-01 4.4934767e-01 -7.4774949e-03 
4.9873501e-01 4.4867396e-01 -1.4382261e-02 
4.9700147e-01 4.4704631e-01 -6.6194101e-03 
4.9637216e-01 4.4637635e-01 -9.3349684e-03 
4.9639043e-01 4.4631845e-01 -1.4632319e-02 
4.9919477e-01 4.4916004e-01 -1.2727870e-02 
4.9883825e-01 4.4877300e-01 -1.4722497e-02 
5.0195414e-01 4.5186532e-01 -1.7238390e-02 
4.9676266e-01 4.4677088e-01 -9.2522604e-03 
4.9437952e-01 4.4440618e-01 -7.1385163e-03 
4.9434412e-01 4.4431043e-01 -1.1506907e-02 
4.9411267e-01 4.4404539e-01 -1.3886228e-02 
4.9435419e-01 4.4438154e-01 -7.3314412e-03 
4.9249190e-01 4.4248426e-01 -9.2235701e-03 
4.9454653e-01 4.4447222e-01 -1.4257971e-02 
4.9200428e-01 4.4203466e-01 -6.4540990e-03 
4.9144951e-01 4.4136125e-01 -1.4582723e-02 
4.9049526e-01 4.4044697e-01 -1.1726556e-02 
4.9048579e-01 4.4050273e-01 -7.0158127e-03 
4.9176264e-01 4.4175586e-01 -9.1474764e-03 
4.9362421e-01 4.4356868e-01 -1.2793538e-02 
4.9611929e-01 4.4600871e-01 -1.7160414e-02 
4.8912442e-01 4.3904150e-01 -1.3834979e-02 
4.9271673e-01 4.4262901e-01 -1.4792342e-02 
4.8858726e-01 4.3857023e-01 -9.1101583e-03 
4.8930377e-01 4.3931773e-01 -7.1835467e-03 
4.8939422e-01 4.3930495e-01 -1.4170030e-02 
4.8657775e-01 4.3652010e-01 -1.1652773e-02 
4.8656875e-01 4.3657824e-01 -6.8923766e-03 
4.8690635e-01 4.3692455e-01 -6.2856805e-03 
4.8640516e-01 4.3630251e-01 -1.4530310e-02 
4.8666173e-01 4.3664223e-01 -9.0423990e-03 
4.8465863e-01 4.3463412e-01 -8.9978697e-03 
4.8804551e-01 4.3797773e-01 -1.2496677e-02 
4.9029440e-01 4.4016477e-01 -1.7079685e-02 
4.8403069e-01 4.3393478e-01 -1.3780873e-02 
4.8415035e-01 4.3415353e-01 -7.0337299e-03 
4.8706192e-01 4.3695790e-01 -1.4760423e-02 
4.8263663e-01 4.3257016e-01 -1.1577837e-02 
4.8262864e-01 4.3263036e-01 -6.7687267e-03 
4.8403105e-01 4.3392864e-01 -1.4088827e-02 
4.8170364e-01 4.3171293e-01 -6.1146817e-03 
4.8070648e-01 4.3067417e-01 -8.8860719e-03 
4.8125342e-01 4.3113944e-01 -1.4474550e-02 
4.8145604e-01 4.3142614e-01 -8.9370878e-03 
4.7867256e-01 4.2859900e-01 -1.1502475e-02 
4.7866416e-01 4.2865846e-01 -6.6432902e-03 
4.7882789e-01 4.2872241e-01 -1.3724498e-02 
4.8448029e-01 4.3433458e-01 -1.6996317e-02 
4.7889057e-01 4.2888603e-01 -6.8821548e-03 
4.8146111e-01 4.3138173e-01 -1.2180937e-02 
4.8145291e-01 4.3133482e-01 -1.4736946e-02 
4.7672936e-01 4.2669144e-01 -8.7712966e-03 
4.7858101e-01 4.2846808e-01 -1.4003965e-02 
4.7639313e-01 4.2639655e-01 -5.9422348e-03 
4.7599202e-01 4.2586926e-01 -1.4414238e-02 
4.7694153e-01 4.2689931e-01 -9.2178145e-03 
4.7468114e-01 4.2460310e-01 -1.1426242e-02 
4.7467509e-01 4.2466691e-01 -6.5209065e-03 
4.7351390e-01 4.2340145e-01 -1.3663329e-02 
4.7867638e-01 4.2851713e-01 -1.6915169e-02 
4.7272810e-01 4.2268845e-01 -8.6602336e-03 
4.7352287e-01 4.2351311e-01 -6.7288089e-03 
4.7576320e-01 4.2563534e-01 -1.4638902e-02 
4.7514549e-01 4.2504916e-01 -1.2505569e-02 
4.7311512e-01 4.2299443e-01 -1.3919162e-02 
4.7066784e-01 4.2058745e-01 -1.1351255e-02 
4.7066012e-01 4.2065123e-01 -6.3968194e-03 
4.7097403e-01 4.2097393e-01 -5.7652052e-03 
4.7061795e-01 4.2048967e-01 -1.4349670e-02 
4.7152042e-01 4.2146921e-01 -9.3602445e-03 
4.6870103e-01 4.1865987e-01 -8.5470341e-03 
4.6808806e-01 4.1797066e-01 -1.3598352e-02 
4.6795493e-01 4.1790560e-01 -9.0209581e-03 
4.7288504e-01 4.2271796e-01 -1.6830472e-02 
4.6804363e-01 4.1803202e-01 -6.5738009e-03 
4.7013679e-01 4.2000338e-01 -1.4457130e-02 
4.6662885e-01 4.1654733e-01 -1.1270801e-02 
4.6662027e-01 4.1660979e-01 -6.2707779e-03 
4.6760273e-01 4.1747805e-01 -1.3840176e-02 
4.6939468e-01 4.1928953e-01 -1.2598719e-02 
4.6544066e-01 4.1544083e-01 -5.5878013e-03 
4.6465015e-01 4.1460842e-01 -8.4303068e-03 
4.6512726e-01 4.1499671e-01 -1.4281778e-02 
4.6590224e-01 4.1584992e-01 -9.2847385e-03 
4.6256351e-01 4.1248232e-01 -1.1192944e-02 
4.6255848e-01 4.1254938e-01 -6.1458652e-03 
4.6253887e-01 4.1242319e-01 -1.3528450e-02 
4.6710303e-01 4.1693041e-01 -1.6744249e-02 
4.6244869e-01 4.1243917e-01 -6.4176745e-03 
4.6448261e-01 4.1434672e-01 -1.4355045e-02 
4.6057338e-01 4.1053486e-01 -8.3165755e-03 
4.6201557e-01 4.1189173e-01 -1.3754067e-02 
4.6375740e-01 4.1364729e-01 -1.2762245e-02 
4.5965019e-01 4.0958717e-01 -1.0130850e-02 
4.5978963e-01 4.0979511e-01 -5.4048714e-03 
4.5951515e-01 4.0938711e-01 -1.4208321e-02 
4.5847416e-01 4.0839836e-01 -1.1114219e-02 
4.6010137e-01 4.1005036e-01 -9.3193557e-03 
4.5796728e-01 4.0796664e-01 -5.8008279e-03 
4.5687014e-01 4.0675890e-01 -1.3456230e-02 
4.5646968e-01 4.0643770e-01 -8.2005486e-03 
4.6133840e-01 4.1116670e-01 -1.6654303e-02 
4.5675048e-01 4.0674382e-01 -6.5582516e-03 
4.5863879e-01 4.0850872e-01 -1.4187018e-02 
4.5653787e-01 4.0641728e-01 -1.3701987e-02 
4.5830533e-01 4.0819135e-01 -1.3200259e-02 
4.5437154e-01 4.0430245e-01 -1.1016101e-02 
4.5436612e-01 4.0436941e-01 -5.8994968e-03 
4.5401829e-01 4.0403238e-01 -5.2209361e-03 
4.5380610e-01 4.0368593e-01 -1.4129039e-02 
4.5237023e-01 4.0234512e-01 -8.0861887e-03 
4.5318565e-01 4.0314302e-01 -9.2512555e-03 
4.5112234e-01 4.0102169e-01 -1.3380356e-02 
4.5559397e-01 4.0542871e-01 -1.6559590e-02 
4.5028564e-01 4.0022296e-01 -1.0906014e-02 
4.5028254e-01 4.0029252e-01 -5.7874746e-03 
4.5097932e-01 4.0098798e-01 -6.0553737e-03 
4.5256880e-01 4.0246302e-01 -1.3111250e-02 
4.5164239e-01 4.0152273e-01 -1.4098643e-02 
4.4980726e-01 3.9970049e-01 -1.3584792e-02 
4.4829848e-01 3.9828110e-01 -7.9742856e-03 
4.4827330e-01 3.9829957e-01 -5.0354670e-03 
4.4810882e-01 3.9799985e-01 -1.4054235e-02 
4.4783962e-01 3.9782497e-01 -8.1048431e-03 
4.4623002e-01 3.9617720e-01 -1.0793949e-02 
4.4599181e-01 3.9601430e-01 -5.4381182e-03 
4.4546917e-01 3.9537996e-01 -1.3303383e-02 
4.4986263e-01 3.9970836e-01 -1.6464049e-02 
4.4527704e-01 3.9530188e-01 -5.8450168e-03 
4.4425488e-01 3.9424860e-01 -7.8606131e-03 
4.4499972e-01 3.9490259e-01 -1.3542002e-02 
4.4637334e-01 3.9630580e-01 -1.1555853e-02 
4.4682732e-01 3.9671278e-01 -1.4508668e-02 
4.4455159e-01 3.9445579e-01 -1.3526360e-02 
4.4261381e-01 3.9265674e-01 -4.8579923e-03 
4.4219935e-01 3.9215896e-01 -1.0681113e-02 
4.4219792e-01 3.9222947e-01 -5.5675376e-03 
4.4250539e-01 3.9240819e-01 -1.3975364e-02 
4.4218516e-01 3.9218879e-01 -7.8388648e-03 
4.4024047e-01 3.9024848e-01 -7.7498560e-03 
4.3990928e-01 3.8983491e-01 -1.3221419e-02 
4.4414759e-01 3.9400870e-01 -1.6373456e-02 
4.3966272e-01 3.8970700e-01 -5.6413496e-03 
4.3864387e-01 3.8869330e-01 -5.1715146e-03 
4.3820244e-01 3.8817650e-01 -1.0566745e-02 
4.3944752e-01 3.8936421e-01 -1.3468740e-02 
4.4112068e-01 3.9102095e-01 -1.4417584e-02 
4.4113389e-01 3.9105681e-01 -1.2929915e-02 
4.3704158e-01 3.8710442e-01 -4.6842620e-03 
4.3901852e-01 3.8898787e-01 -1.0327038e-02 
4.3699339e-01 3.8691461e-01 -1.3894037e-02 
4.3625817e-01 3.8627937e-01 -7.6383301e-03 
4.3805721e-01 3.8797894e-01 -1.3412921e-02 
4.3661907e-01 3.8664499e-01 -7.5810063e-03 
4.3423218e-01 3.8422000e-01 -1.0454800e-02 
4.3443915e-01 3.8438612e-01 -1.3140528e-02 
4.3843952e-01 3.8831559e-01 -1.6271280e-02 
4.3413490e-01 3.8420284e-01 -5.4434235e-03 
4.3349442e-01 3.8356507e-01 -4.9689617e-03 
4.3398705e-01 3.8392505e-01 -1.3394808e-02 
4.3229890e-01 3.8233957e-01 -7.5297500e-03 
4.3542400e-01 3.8533923e-01 -1.4324446e-02 
4.3543535e-01 3.8537380e-01 -1.2838023e-02 
4.3155381e-01 3.8164330e-01 -4.5141266e-03 
4.3157187e-01 3.8151690e-01 -1.3811024e-02 
4.3028843e-01 3.8029727e-01 -1.0339557e-02 
4.3028891e-01 3.8036883e-01 -5.2474239e-03 
4.3240368e-01 3.8240761e-01 -9.7764209e-03 
4.3237934e-01 3.8232359e-01 -1.3306103e-02 
4.3113905e-01 3.8119271e-01 -7.3313792e-03 
4.2944720e-01 3.7950182e-01 -7.4522169e-03 
4.2906106e-01 3.7903434e-01 -1.3056335e-02 
4.2837149e-01 3.7843168e-01 -7.4225650e-03 
4.3275049e-01 3.8264519e-01 -1.6168179e-02 
4.2823389e-01 3.7833777e-01 -4.5008906e-03 
4.2869347e-01 3.7878907e-01 -5.2522314e-03 
4.2861795e-01 3.7858114e-01 -1.3319843e-02 
4.2975047e-01 3.7969157e-01 -1.4227345e-02 
4.2975959e-01 3.7972504e-01 -1.2744407e-02 
4.2637724e-01 3.7640977e-01 -1.0224569e-02 
4.2637345e-01 3.7647656e-01 -5.1450897e-03 
4.2620471e-01 3.7625754e-01 -8.7003326e-03 
4.2614895e-01 3.7626919e-01 -4.3520224e-03 
4.2623979e-01 3.7628216e-01 -9.4199544e-03 
4.2624417e-01 3.7621567e-01 -1.3723341e-02 
4.2674395e-01 3.7678042e-01 -9.6932529e-03 
4.2672393e-01 3.7669852e-01 -1.3196731e-02 
4.2574701e-01 3.7583229e-01 -7.0933891e-03 
4.2447484e-01 3.7455919e-01 -7.3125162e-03 
4.2433599e-01 3.7446436e-01 -4.4004112e-03 
4.2377225e-01 3.7377605e-01 -1.2964434e-02 
4.2289263e-01 3.7301549e-01 -5.2422588e-03 
4.2333233e-01 3.7346315e-01 -5.0644968e-03 
4.2708445e-01 3.7700805e-01 -1.6061917e-02 
4.2284465e-01 3.7293878e-01 -7.3015084e-03 
4.2249551e-01 3.7255114e-01 -1.0108685e-02 
4.2334202e-01 3.7333697e-01 -1.3247771e-02 
4.2409965e-01 3.7407529e-01 -1.4128038e-02 
4.2410687e-01 3.7410757e-01 -1.2648616e-02 
4.2060950e-01 3.7072012e-01 -7.2087799e-03 
4.2083132e-01 3.7098864e-01 -4.1922610e-03 
4.2099786e-01 3.7100449e-01 -1.3633940e-02 
4.2043614e-01 3.7055969e-01 -6.8517053e-03 
4.2110658e-01 3.7117735e-01 -9.6146157e-03 
4.2109016e-01 3.7110069e-01 -1.3090418e-02 
4.1864598e-01 3.6872908e-01 -9.9962652e-03 
4.1883168e-01 3.6895320e-01 -7.4128532e-03 
4.1864175e-01 3.6879936e-01 -4.9465941e-03 
4.1856942e-01 3.6860764e-01 -1.2877114e-02 
4.1805589e-01 3.6822349e-01 -4.8831585e-03 
4.2144278e-01 3.7140161e-01 -1.5951704e-02 
4.1814941e-01 3.6817878e-01 -1.3168593e-02 
4.1677243e-01 3.6691263e-01 -7.1016857e-03 
4.1663444e-01 3.6681855e-01 -4.1920790e-03 
4.1576254e-01 3.6587268e-01 -9.4370786e-03 
4.1584483e-01 3.6588690e-01 -1.3543328e-02 
4.1559231e-01 3.6578909e-01 -4.0378757e-03 
4.1847327e-01 3.6848623e-01 -1.4025546e-02 
4.1847879e-01 3.6851689e-01 -1.2549401e-02 
4.1515085e-01 3.6530000e-01 -7.3006093e-03 
4.1501197e-01 3.6514014e-01 -8.8368123e-03 
4.1482121e-01 3.6493570e-01 -9.8826094e-03 
4.1481903e-01 3.6500835e-01 -4.8469193e-03 
4.1520482e-01 3.6537093e-01 -6.6222325e-03 
4.1548923e-01 3.6560342e-01 -9.5281964e-03 
4.1547605e-01 3.6552906e-01 -1.2979038e-02 
4.1345438e-01 3.6353219e-01 -1.2784844e-02 
4.1296303e-01 3.6313730e-01 -6.9981255e-03 
4.1282675e-01 3.6304489e-01 -4.0931506e-03 
4.1286507e-01 3.6307901e-01 -4.7090114e-03 
4.1303980e-01 3.6310825e-01 -1.3095723e-02 
4.1582316e-01 3.6582169e-01 -1.5838314e-02 
4.1102588e-01 3.6117440e-01 -9.7697256e-03 
4.1102692e-01 3.6124974e-01 -4.7488967e-03 
4.1073287e-01 3.6090150e-01 -8.4478091e-03 
4.1077459e-01 3.6085969e-01 -1.3451455e-02 
4.1043368e-01 3.6067700e-01 -3.8819630e-03 
4.1286570e-01 3.6292177e-01 -1.3920149e-02 
4.1286993e-01 3.6295134e-01 -1.2447869e-02 
4.0918219e-01 3.5939094e-01 -6.8993815e-03 