# vtk DataFile Version 4.0
vtk output
ASCII
DATASET UNSTRUCTURED_GRID
POINTS 6166 float
-4.3633327e-01 9.6409470e-01 4.4200001e+01 
-4.3633261e-01 9.6409082e-01 4.4079685e+01 
-3.2145375e-01 9.1276109e-01 4.4200001e+01 
-3.8566181e-01 8.4097892e-01 4.4200001e+01 
-3.3069235e-01 9.1895354e-01 4.4019413e+01 
-3.8473952e-01 8.3919770e-01 4.4024357e+01 
-4.3633196e-01 9.6408689e-01 4.3958702e+01 
-2.1293370e-01 8.4677851e-01 4.4200001e+01 
-2.9042658e-01 7.3813015e-01 4.4200001e+01 
-2.1019450e-01 8.4669626e-01 4.4077393e+01 
-2.8909999e-01 7.3605996e-01 4.4073399e+01 
-3.2963324e-01 9.1929907e-01 4.3898094e+01 
-3.8679782e-01 8.4179753e-01 4.3889645e+01 
-2.0740938e-01 8.4661204e-01 4.3952713e+01 
-4.3633130e-01 9.6408290e-01 4.3837040e+01 
-1.1677200e-01 7.7521002e-01 4.4200001e+01 
-2.8775173e-01 7.3395580e-01 4.3944717e+01 
-1.9365783e-01 6.6203654e-01 4.4200001e+01 
-1.1309985e-01 7.7540898e-01 4.4012005e+01 
-1.9181472e-01 6.5888047e-01 4.4006447e+01 
-3.2856464e-01 9.1964108e-01 4.3776085e+01 
-3.8823184e-01 8.4352189e-01 4.3765770e+01 
-2.0457739e-01 8.4652513e-01 4.3825886e+01 
-2.8638119e-01 7.3181647e-01 4.3813885e+01 
-4.3633065e-01 9.6407896e-01 4.3714680e+01 
-1.0911675e-01 7.7426714e-01 4.3886200e+01 
-2.1001574e-02 6.8269837e-01 4.4200001e+01 
-1.8902887e-01 6.5566909e-01 4.3876659e+01 
-7.8887597e-02 5.9015810e-01 4.4200001e+01 
-3.2748649e-01 9.1997939e-01 4.3653378e+01 
-3.9889076e-01 8.5876143e-01 4.3651733e+01 
-2.0169757e-01 8.4643483e-01 4.3696846e+01 
-7.2496021e-03 6.7325598e-01 4.3947758e+01 
-1.0504345e-01 7.7307969e-01 4.3758209e+01 
-2.8498772e-01 7.2964084e-01 4.3680840e+01 
-6.3224643e-02 5.7783771e-01 4.3940754e+01 
3.5808440e-02 6.2679136e-01 4.4056572e+01 
-1.8616955e-01 6.5238589e-01 4.3744686e+01 
-4.3632996e-01 9.6407503e-01 4.3591618e+01 
-9.8678423e-03 5.4892725e-01 4.4055367e+01 
-1.8652271e-02 6.8798620e-01 4.3834026e+01 
-7.9845116e-02 5.8636194e-01 4.3823372e+01 
8.7777540e-02 5.7885915e-01 4.4200001e+01 
5.3622175e-02 5.1732427e-01 4.4200001e+01 
-3.2639861e-01 9.2031354e-01 4.3529953e+01 
-3.9894739e-01 8.5844576e-01 4.3528313e+01 
-1.9876897e-01 8.4634024e-01 4.3565521e+01 
-1.0087753e-01 7.7184403e-01 4.3627972e+01 
-2.8357074e-01 7.2742778e-01 4.3545506e+01 
-1.8323407e-01 6.4902818e-01 4.3610458e+01 
-4.3632931e-01 9.6407109e-01 4.3467831e+01 
3.1033519e-03 6.6751039e-01 4.3691772e+01 
-5.3600248e-02 5.6906003e-01 4.3676846e+01 
1.2436585e-01 5.5082864e-01 4.3886215e+01 
1.7079005e-01 5.1095647e-01 4.4054855e+01 
1.4951277e-01 4.6697062e-01 4.4053665e+01 
1.0028158e-01 4.8915190e-01 4.3877911e+01 
-4.0513036e-01 8.6722642e-01 4.3405304e+01 
-3.2530096e-01 9.2064321e-01 4.3405800e+01 
-9.6616447e-02 7.7055699e-01 4.3495411e+01 
-8.4563000e-03 6.8258613e-01 4.3574005e+01 
-1.9579062e-01 8.4624058e-01 4.3431831e+01 
2.1753120e-01 4.7335833e-01 4.4200001e+01 
2.0360756e-01 4.4289169e-01 4.4200001e+01 
-1.8021962e-01 6.4559317e-01 4.3473904e+01 
-7.0636064e-02 5.7773441e-01 4.3555408e+01 
-2.8212959e-01 7.2517604e-01 4.3407806e+01 
-4.3632865e-01 9.6406716e-01 4.3343307e+01 
1.3810426e-01 5.4143524e-01 4.3628246e+01 
-3.2419339e-01 9.2096806e-01 4.3280907e+01 
-3.9903235e-01 8.5775709e-01 4.3279266e+01 
-9.2257597e-02 7.6921552e-01 4.3360443e+01 
1.1508528e-01 4.7804743e-01 4.3612068e+01 
-1.9276154e-01 8.4613472e-01 4.3295704e+01 
1.4013666e-02 6.6131532e-01 4.3426643e+01 
-1.7712323e-01 6.4207786e-01 4.3334946e+01 
-2.8066361e-01 7.2288430e-01 4.3267666e+01 
-4.3382257e-02 5.5983055e-01 4.3403778e+01 
-4.3632799e-01 9.6406323e-01 4.3218033e+01 
3.7877345e-01 3.8273901e-01 4.4200001e+01 
3.9076596e-01 3.7443376e-01 4.3993755e+01 
-3.2307580e-01 9.2128778e-01 4.3155251e+01 
-3.9906058e-01 8.5738426e-01 4.3153610e+01 
-8.7798268e-02 7.6781619e-01 4.3222996e+01 
1.9689407e-02 6.5803534e-01 4.3290459e+01 
-6.0862999e-02 5.6866169e-01 4.3278019e+01 
-1.8968078e-01 8.4602165e-01 4.3157055e+01 
-1.7394182e-01 6.3847917e-01 4.3193501e+01 
-4.3632734e-01 9.6405929e-01 4.3091995e+01 
4.0275589e-01 3.6612594e-01 4.3787510e+01 
1.2304078e-01 5.5709994e-01 4.3330139e+01 
-2.7917209e-01 7.2055119e-01 4.3125000e+01 
2.5336364e-01 4.4907436e-01 4.3468094e+01 
2.3670304e-01 4.1684708e-01 4.3469433e+01 
1.3086085e-01 4.6634668e-01 4.3336948e+01 
-3.8351217e-01 8.3473074e-01 4.3036392e+01 
-3.2194808e-01 9.2160189e-01 4.3028820e+01 
2.5518833e-02 6.5462554e-01 4.3151749e+01 
-8.3235659e-02 7.6635528e-01 4.3082981e+01 
4.1474071e-01 3.5781288e-01 4.3581264e+01 
-1.8654740e-01 8.4590012e-01 4.3015797e+01 
-3.2522827e-02 5.5011308e-01 4.3120937e+01 
-1.7067213e-01 6.3479382e-01 4.3049488e+01 
-4.3632668e-01 9.6405542e-01 4.2965172e+01 
-2.7765438e-01 7.1817529e-01 4.2979721e+01 
2.6620242e-01 4.4011977e-01 4.3261948e+01 
1.3584816e-02 6.7044950e-01 4.3025066e+01 
-3.2081014e-01 9.2191011e-01 4.2901604e+01 
-3.8160574e-01 8.3169121e-01 4.2902863e+01 
-7.8566879e-02 7.6482886e-01 4.2940315e+01 
-5.0480481e-02 5.5910730e-01 4.2990566e+01 
4.2671782e-01 3.4949207e-01 4.3375019e+01 
1.6821145e-01 5.2049083e-01 4.3083881e+01 
-1.8336046e-01 8.4576881e-01 4.2871841e+01 
-4.3632606e-01 9.6405160e-01 4.2837555e+01 
-1.6731077e-01 6.3101834e-01 4.2902817e+01 
1.4768846e-01 4.5400122e-01 4.3051926e+01 
-2.7610970e-01 7.1575516e-01 4.2831745e+01 
-3.1966189e-01 9.2221189e-01 4.2773579e+01 
-3.8560396e-01 8.3684862e-01 4.2767078e+01 
3.7660085e-02 6.4738947e-01 4.2866421e+01 
-7.3788933e-02 7.6323271e-01 4.2794899e+01 
4.3868470e-01 3.4116083e-01 4.3168777e+01 
-4.3632543e-01 9.6404779e-01 4.2709122e+01 
-2.0968946e-02 5.3986710e-01 4.2827656e+01 
-1.8011902e-01 8.4562629e-01 4.2725094e+01 
-1.6385415e-01 6.2714905e-01 4.2753403e+01 
-2.7453732e-01 7.1328926e-01 4.2680973e+01 
-3.1850323e-01 9.2250693e-01 4.2644733e+01 
-3.9907700e-01 8.5570478e-01 4.2643101e+01 
2.5504474e-02 6.6361672e-01 4.2734810e+01 
1.8471870e-01 5.0880390e-01 4.2796177e+01 
-6.8898737e-02 7.6156229e-01 4.2646645e+01 
-3.9438177e-02 5.4903054e-01 4.2692345e+01 
-4.3632481e-01 9.6404403e-01 4.2579861e+01 
4.5063871e-01 3.3281663e-01 4.2962532e+01 
1.6565691e-01 4.4095638e-01 4.2756321e+01 
-1.7682223e-01 8.4547096e-01 4.2575459e+01 
-1.6029853e-01 6.2318206e-01 4.2601143e+01 
-4.0415615e-01 8.6278629e-01 4.2516582e+01 
-3.1733403e-01 9.2279470e-01 4.2515053e+01 
-2.7293649e-01 7.1077597e-01 4.2527313e+01 
5.0482783e-02 6.3954860e-01 4.2569923e+01 
-4.3632418e-01 9.6404034e-01 4.2449757e+01 
-6.3893095e-02 7.5981271e-01 4.2495445e+01 
-8.6617703e-03 5.2904755e-01 4.2523201e+01 
-1.7346917e-01 8.4530097e-01 4.2422829e+01 
-1.5663996e-01 6.1911333e-01 4.2445942e+01 
3.0435190e-01 4.1341871e-01 4.2643494e+01 
4.6257737e-01 3.2445681e-01 4.2756287e+01 
-3.1615424e-01 9.2307472e-01 4.2384518e+01 
-3.9902648e-01 8.5475212e-01 4.2382885e+01 
-2.7130640e-01 7.0821363e-01 4.2370659e+01 
3.8079392e-02 6.5619886e-01 4.2433029e+01 
2.0230262e-01 4.9620378e-01 4.2497147e+01 
-4.3632355e-01 9.6403670e-01 4.2318787e+01 
-5.8768708e-02 7.5797862e-01 4.2341198e+01 
-2.7680276e-02 5.3838593e-01 4.2382599e+01 
1.8486446e-01 4.2715022e-01 4.2449394e+01 
-3.8436696e-01 8.3356136e-01 4.2264896e+01 
8.9545198e-02 5.3233254e-01 4.2382050e+01 
-3.3225983e-01 9.3122375e-01 4.2255634e+01 
-1.7005907e-01 8.4511453e-01 4.2267101e+01 
-1.5287429e-01 6.1493850e-01 4.2287693e+01 
4.7449806e-01 3.1607881e-01 4.2550037e+01 
-2.6964626e-01 7.0560038e-01 4.2210907e+01 
-4.3632296e-01 9.6403313e-01 4.2186939e+01 
6.4036883e-02 6.3103610e-01 4.2261456e+01 
-5.3522192e-02 7.5605446e-01 4.2183796e+01 
-3.7873057e-01 8.2541841e-01 4.2124020e+01 
-3.1376252e-01 9.2360973e-01 4.2120819e+01 
4.4639236e-03 5.1760370e-01 4.2206776e+01 
-1.6659111e-01 8.4490943e-01 4.2108162e+01 
-1.4899719e-01 6.1065292e-01 4.2126286e+01 
-4.3632239e-01 9.6402961e-01 4.2054195e+01 
4.8639825e-01 3.0768004e-01 4.2343792e+01 
-2.6795524e-01 7.0293444e-01 4.2047943e+01 
2.4746621e-01 4.6040925e-01 4.2191032e+01 
7.1105182e-02 6.2650448e-01 4.2102463e+01 
-3.1255043e-01 9.2386365e-01 4.1987617e+01 
-4.8150036e-02 7.5403398e-01 4.2023121e+01 
-1.5144684e-02 5.2712250e-01 4.2060505e+01 
-3.7995064e-01 8.2661813e-01 4.1980038e+01 
2.0541981e-01 4.1251117e-01 4.2130333e+01 
-1.6306458e-01 8.4468329e-01 4.1945896e+01 
-4.3632182e-01 9.6402621e-01 4.1920536e+01 
-1.4500406e-01 6.0625184e-01 4.1961609e+01 
1.3375351e-01 5.6370503e-01 4.1969833e+01 
-2.6623246e-01 7.0021385e-01 4.1881653e+01 
-3.1132740e-01 9.2410773e-01 4.1853493e+01 
-3.9880505e-01 8.5261923e-01 4.1851868e+01 
4.9827534e-01 2.9925787e-01 4.2137547e+01 
3.4194937e-01 3.8685825e-01 4.2025021e+01 
-4.2648647e-02 7.5191063e-01 4.1859051e+01 
-2.5401810e-01 7.9503769e-01 4.1808533e+01 
1.8480448e-02 5.0547802e-01 4.1877510e+01 
-4.3632126e-01 9.6402287e-01 4.1785946e+01 
-1.5947884e-01 8.4443361e-01 4.1780174e+01 
-1.4089009e-01 6.0172999e-01 4.1793541e+01 
-3.1009343e-01 9.2434150e-01 4.1718426e+01 
-4.0306881e-01 8.5845691e-01 4.1716179e+01 
8.5861288e-02 6.1683756e-01 4.1774368e+01 
-2.6447710e-01 6.9743657e-01 4.1711910e+01 
3.0427080e-01 4.1638452e-01 4.1839512e+01 
2.6751360e-01 3.7833902e-01 4.1830902e+01 
5.1012677e-01 2.9080975e-01 4.1931297e+01 
-3.7014309e-02 7.4967718e-01 4.1691463e+01 
-4.3632072e-01 9.6401966e-01 4.1650398e+01 
2.5847588e-02 4.9913955e-01 4.1707767e+01 
-1.5583332e-01 8.4415752e-01 4.1610870e+01 
-3.8322043e-01 8.2981020e-01 4.1595791e+01 
-3.0884841e-01 9.2456430e-01 4.1582397e+01 
-1.3665022e-01 5.9708190e-01 4.1621960e+01 
9.3565010e-02 6.1167872e-01 4.1605015e+01 
-2.6268822e-01 6.9460052e-01 4.1538593e+01 
-4.3632022e-01 9.6401656e-01 4.1513885e+01 
-3.1243213e-02 7.4732590e-01 4.1520226e+01 
2.7603787e-01 3.7115356e-01 4.1624012e+01 
2.8505871e-01 4.3281260e-01 4.1611507e+01 
5.2195001e-01 2.8233302e-01 4.1725052e+01 
3.3468332e-02 4.9260557e-01 4.1534447e+01 
-3.9853087e-01 8.5081697e-01 4.1443768e+01 
-3.2560509e-01 9.3245691e-01 4.1443577e+01 
-1.5212752e-01 8.4385180e-01 4.1437847e+01 
-1.3227913e-01 5.9230179e-01 4.1446728e+01 
-4.3631971e-01 9.6401358e-01 4.1376381e+01 
[...]
POINT_DATA 6166
FIELD FieldData 5
DISPLACEMENT 3 6166  float
-2.0012695e-01 -1.8492644e-01 -1.6516650e-03 
-1.9882709e-01 -1.8361260e-01 -1.6375023e-03 
-2.0007758e-01 -1.8481128e-01 -9.6920400e-04 
-1.9999529e-01 -1.8486960e-01 -2.4466494e-03 
-1.9813283e-01 -1.8284871e-01 -9.8025857e-04 
-1.9809581e-01 -1.8295060e-01 -2.4353724e-03 
-1.9751999e-01 -1.8229146e-01 -1.6232720e-03 
-2.0001182e-01 -1.8470143e-01 -5.1533128e-04 
-1.9988842e-01 -1.8477051e-01 -2.5385853e-03 
-1.9868731e-01 -1.8335994e-01 -4.7213354e-04 
-1.9851848e-01 -1.8338664e-01 -2.5318770e-03 
-1.9682252e-01 -1.8152288e-01 -9.5073198e-04 
-1.9664316e-01 -1.8148170e-01 -2.4133814e-03 
-1.9734037e-01 -1.8199572e-01 -4.2822535e-04 
-1.9620550e-01 -1.8096285e-01 -1.6089710e-03 
-1.9993921e-01 -1.8460329e-01 -2.5605038e-04 
-1.9712606e-01 -1.8198000e-01 -2.5250523e-03 
-1.9981088e-01 -1.8467149e-01 -2.3220866e-03 
-1.9790867e-01 -1.8254690e-01 -1.9198237e-04 
-1.9771653e-01 -1.8255602e-01 -2.3137254e-03 
-1.9550478e-01 -1.8018955e-01 -9.2107948e-04 
-1.9530664e-01 -1.8013045e-01 -2.3954648e-03 
-1.9597024e-01 -1.8060808e-01 -3.8360021e-04 
-1.9571041e-01 -1.8054990e-01 -2.5180960e-03 
-1.9488351e-01 -1.7962667e-01 -1.5945920e-03 
-1.9654849e-01 -1.8116920e-01 -1.4652692e-04 
-1.9984365e-01 -1.8450423e-01 -2.2946578e-04 
-1.9631103e-01 -1.8113585e-01 -2.3032888e-03 
-1.9973898e-01 -1.8455516e-01 -1.8649310e-03 
-1.9417946e-01 -1.7884858e-01 -8.9130912e-04 
-1.9409066e-01 -1.7889647e-01 -2.3310550e-03 
-1.9457622e-01 -1.7919627e-01 -3.3825997e-04 
-1.9710907e-01 -1.8173590e-01 -1.5398616e-04 
-1.9516474e-01 -1.7976767e-01 -1.0036519e-04 
-1.9427082e-01 -1.7909564e-01 -2.5109886e-03 
-1.9692574e-01 -1.8170832e-01 -1.7993052e-03 
-1.9823635e-01 -1.8287925e-01 -2.0800941e-04 
-1.9488192e-01 -1.7969182e-01 -2.2925462e-03 
-1.9355391e-01 -1.7828277e-01 -1.5801181e-03 
-1.9813539e-01 -1.8290596e-01 -1.5511712e-03 
-1.9589588e-01 -1.8050611e-01 -1.0321532e-04 
-1.9566602e-01 -1.8044333e-01 -1.8721868e-03 
-1.9973640e-01 -1.8439174e-01 -1.8576403e-04 
-1.9966704e-01 -1.8442139e-01 -1.2263547e-03 
-1.9284646e-01 -1.7749991e-01 -8.6137705e-04 
-1.9275695e-01 -1.7754880e-01 -2.3204819e-03 
-1.9315755e-01 -1.7775957e-01 -2.9220697e-04 
-1.9375667e-01 -1.7834155e-01 -5.3488198e-05 
-1.9280654e-01 -1.7761642e-01 -2.5037506e-03 
-1.9342844e-01 -1.7822321e-01 -2.2815189e-03 
-1.9221652e-01 -1.7693114e-01 -1.5656024e-03 
-1.9433802e-01 -1.7893048e-01 -7.4555704e-05 
-1.9406576e-01 -1.7881685e-01 -1.7597353e-03 
-1.9631803e-01 -1.8092807e-01 -5.8835889e-05 
-1.9809896e-01 -1.8272169e-01 -1.1587425e-05 
-1.9803670e-01 -1.8272683e-01 -7.2133174e-04 
-1.9615944e-01 -1.8085721e-01 -9.9101465e-04 
-1.9143738e-01 -1.7621230e-01 -2.2770455e-03 
-1.9150564e-01 -1.7614333e-01 -8.3140942e-04 
-1.9232352e-01 -1.7689011e-01 -5.9243139e-06 
-1.9308166e-01 -1.7765692e-01 -2.1285134e-05 
-1.9171347e-01 -1.7629714e-01 -2.4544518e-04 
-1.9962853e-01 -1.8425861e-01 6.6639717e-05 
-1.9959435e-01 -1.8427038e-01 -4.1624918e-04 
-1.9194987e-01 -1.7672922e-01 -2.2701256e-03 
-1.9276255e-01 -1.7750822e-01 -1.8349456e-03 
-1.9131687e-01 -1.7611158e-01 -2.4962879e-03 
-1.9087139e-01 -1.7557158e-01 -1.5509658e-03 
-1.9352190e-01 -1.7809762e-01 1.7648184e-05 
-1.9015704e-01 -1.7477894e-01 -8.0122508e-04 
-1.9006608e-01 -1.7482986e-01 -2.2993863e-03 
-1.9086452e-01 -1.7541254e-01 4.2327662e-05 
-1.9327649e-01 -1.7793962e-01 -9.2060247e-04 
-1.9024318e-01 -1.7480832e-01 -1.9799588e-04 
-1.9146803e-01 -1.7602514e-01 6.9633793e-06 
-1.9044545e-01 -1.7520911e-01 -2.2583774e-03 
-1.8980089e-01 -1.7458019e-01 -2.4887410e-03 
-1.9110686e-01 -1.7582534e-01 -1.7174835e-03 
-1.8951823e-01 -1.7420407e-01 -1.5362980e-03 
-1.9953881e-01 -1.8409564e-01 8.2187430e-04 
-1.9730245e-01 -1.8183152e-01 8.8529434e-04 
-1.8880033e-01 -1.7340635e-01 -7.7098788e-04 
-1.8870871e-01 -1.7345834e-01 -2.2888207e-03 
-1.8937883e-01 -1.7390810e-01 9.1263821e-05 
-1.8999401e-01 -1.7453308e-01 4.8459002e-05 
-1.8975751e-01 -1.7447038e-01 -1.7951495e-03 
-1.8874580e-01 -1.7329219e-01 -1.4986674e-04 
-1.8891439e-01 -1.7366213e-01 -2.2462728e-03 
-1.8815698e-01 -1.7282836e-01 -1.5215406e-03 
-1.9506615e-01 -1.7956758e-01 9.4860367e-04 
-1.9031838e-01 -1.7485936e-01 6.0509235e-05 
-1.8825792e-01 -1.7302161e-01 -2.4809486e-03 
-1.9169798e-01 -1.7623159e-01 2.7539732e-04 
-1.9167629e-01 -1.7626047e-01 -2.5619959e-04 
-1.9029334e-01 -1.7492059e-01 -8.4510434e-04 
-1.8741924e-01 -1.7216273e-01 -2.3536379e-03 
-1.8743546e-01 -1.7202573e-01 -7.4073009e-04 
-1.8849286e-01 -1.7301379e-01 9.0446600e-05 
-1.8786564e-01 -1.7237593e-01 1.4089383e-04 
-1.9283012e-01 -1.7730406e-01 1.0117223e-03 
-1.8722062e-01 -1.7174801e-01 -1.0091581e-04 
-1.8804291e-01 -1.7272773e-01 -1.6722081e-03 
-1.8735577e-01 -1.7208746e-01 -2.2338608e-03 
-1.8678759e-01 -1.7144452e-01 -1.5067294e-03 
-1.8668708e-01 -1.7143494e-01 -2.4729755e-03 
-1.8946305e-01 -1.7396930e-01 3.4052355e-04 
-1.8714181e-01 -1.7164443e-01 1.4868197e-04 
-1.8606234e-01 -1.7063689e-01 -7.1026536e-04 
-1.8597448e-01 -1.7070390e-01 -2.3502936e-03 
-1.8632409e-01 -1.7081518e-01 1.9114684e-04 
-1.8664449e-01 -1.7132366e-01 -1.7526184e-03 
-1.9059494e-01 -1.7504176e-01 1.0744260e-03 
-1.8762238e-01 -1.7212667e-01 1.7844564e-04 
-1.8566665e-01 -1.7017481e-01 -5.1358300e-05 
-1.8540968e-01 -1.7005232e-01 -1.4918776e-03 
-1.8576887e-01 -1.7048422e-01 -2.2209110e-03 
-1.8720394e-01 -1.7179409e-01 -7.6390873e-04 
-1.8508746e-01 -1.6981941e-01 -2.4647496e-03 
-1.8468077e-01 -1.6923961e-01 -6.7984383e-04 
-1.8451439e-01 -1.6922709e-01 -2.3210135e-03 
-1.8540585e-01 -1.6988978e-01 1.7584598e-04 
-1.8475328e-01 -1.6922498e-01 2.4205797e-04 
-1.8835965e-01 -1.7277935e-01 1.1369671e-03 
-1.8402344e-01 -1.6865177e-01 -1.4768827e-03 
-1.8486723e-01 -1.6951750e-01 -1.6238329e-03 
-1.8408300e-01 -1.6857186e-01 -1.1566100e-06 
-1.8415262e-01 -1.6885161e-01 -2.2076722e-03 
-1.8345831e-01 -1.6817413e-01 -2.4561691e-03 
-1.8329082e-01 -1.6783398e-01 -6.4939185e-04 
-1.8319647e-01 -1.6788976e-01 -2.2463598e-03 
-1.8400280e-01 -1.6846798e-01 2.3641789e-04 
-1.8450592e-01 -1.6897312e-01 2.6298911e-04 
-1.8315229e-01 -1.6760451e-01 2.9344027e-04 
-1.8341662e-01 -1.6806127e-01 -1.7071918e-03 
-1.8262893e-01 -1.6724281e-01 -1.4616873e-03 
-1.8612549e-01 -1.7051852e-01 1.1990047e-03 
-1.8400133e-01 -1.6855319e-01 -6.7675154e-04 
-1.8246889e-01 -1.6693832e-01 4.9635055e-05 
-1.8250649e-01 -1.6718873e-01 -2.1937317e-03 
-1.8183915e-01 -1.6651645e-01 -2.2088878e-03 
-1.8189248e-01 -1.6642018e-01 -6.1865040e-04 
-1.8179873e-01 -1.6649818e-01 -2.4475495e-03 
-1.8220001e-01 -1.6664636e-01 2.6277933e-04 
-1.8122573e-01 -1.6582546e-01 -1.4465803e-03 
-1.8152045e-01 -1.6595313e-01 3.4541590e-04 
-1.8157329e-01 -1.6618828e-01 -1.5718322e-03 
-1.8082316e-01 -1.6527304e-01 1.0109349e-04 
-1.8082958e-01 -1.6549504e-01 -2.1797337e-03 
-1.8276332e-01 -1.6718906e-01 5.3350261e-04 
-1.8389253e-01 -1.6825943e-01 1.2605512e-03 
-1.8048546e-01 -1.6499737e-01 -5.8790104e-04 
-1.8038972e-01 -1.6505504e-01 -2.2247361e-03 
-1.8010767e-01 -1.6479078e-01 -2.4387022e-03 
-1.8074188e-01 -1.6516924e-01 3.2591325e-04 
-1.8126926e-01 -1.6569895e-01 3.5013107e-04 
-1.7981398e-01 -1.6439933e-01 -1.4312267e-03 
-1.7985626e-01 -1.6426922e-01 3.9811153e-04 
-1.8006724e-01 -1.6467673e-01 -1.6584684e-03 
-1.8067898e-01 -1.6519195e-01 -5.8320496e-04 
-1.7909646e-01 -1.6375543e-01 -2.2824844e-03 
-1.8006156e-01 -1.6455734e-01 -4.5992754e-04 
-1.7910442e-01 -1.6361067e-01 -6.5840181e-04 
-1.7914504e-01 -1.6357514e-01 1.5319370e-04 
-1.7912024e-01 -1.6376893e-01 -2.1648698e-03 
-1.8166059e-01 -1.6600141e-01 1.3215616e-03 
-1.7838418e-01 -1.6305095e-01 -2.4293328e-03 
-1.7839359e-01 -1.6296491e-01 -1.4158423e-03 
-1.7886752e-01 -1.6327599e-01 3.5153184e-04 
-1.7815910e-01 -1.6255209e-01 4.5125870e-04 
-1.7757088e-01 -1.6221745e-01 -2.2931139e-03 
-1.7764547e-01 -1.6212648e-01 -5.2666705e-04 
-1.7815293e-01 -1.6273199e-01 -1.5161891e-03 
-1.7743348e-01 -1.6184372e-01 2.0610094e-04 
-1.7737788e-01 -1.6200981e-01 -2.1498087e-03 
-1.7696448e-01 -1.6152170e-01 -1.4005146e-03 
-1.7943008e-01 -1.6374560e-01 1.3818105e-03 
-1.7662723e-01 -1.6127758e-01 -2.4198208e-03 
-1.7793587e-01 -1.6232367e-01 4.8326352e-04 
-1.7715158e-01 -1.6154066e-01 3.9649793e-04 
-1.7621215e-01 -1.6067815e-01 -4.9579015e-04 
-1.7642775e-01 -1.6080084e-01 5.0468353e-04 
-1.7658785e-01 -1.6116174e-01 -1.6061873e-03 
-1.7602247e-01 -1.6065395e-01 -2.2757766e-03 
-1.7722848e-01 -1.6170144e-01 -4.8283720e-04 
-1.7568731e-01 -1.6007759e-01 2.5928253e-04 
-1.7552598e-01 -1.6006960e-01 -1.3851839e-03 
-1.7560180e-01 -1.6021691e-01 -2.1337734e-03 
-1.7566073e-01 -1.6003656e-01 4.0435980e-04 
-1.7483611e-01 -1.5947026e-01 -2.4097434e-03 
-1.7476982e-01 -1.5922084e-01 -4.6526128e-04 
-1.7467104e-01 -1.5928188e-01 -2.1809773e-03 
-1.7720206e-01 -1.6149303e-01 1.4412221e-03 
-1.7607635e-01 -1.6042575e-01 7.2060683e-04 
-1.7466156e-01 -1.5901476e-01 5.5841019e-04 
-1.7415230e-01 -1.5867102e-01 -1.2421620e-03 
-1.7459880e-01 -1.5914175e-01 -1.4563473e-03 
-1.7407894e-01 -1.5860920e-01 -1.3698218e-03 
-1.7390592e-01 -1.5827672e-01 3.1227770e-04 
-1.7379126e-01 -1.5838945e-01 -2.1167742e-03 
-1.7331865e-01 -1.5775514e-01 -4.3465607e-04 
-1.7321943e-01 -1.5781532e-01 -2.1467013e-03 
-1.7361441e-01 -1.5796556e-01 4.8610338e-04 
-1.7300989e-01 -1.5762803e-01 -2.3990618e-03 
-1.7411138e-01 -1.5845041e-01 6.5660640e-04 
-1.7397583e-01 -1.5838987e-01 -1.4959410e-04 
-1.7497514e-01 -1.5924142e-01 1.4997305e-03 
-1.7285976e-01 -1.5719320e-01 6.1227166e-04 
-1.7262319e-01 -1.5714020e-01 -1.3538169e-03 
-1.7276977e-01 -1.5729484e-01 -1.4241615e-03 
-1.7208849e-01 -1.5643969e-01 3.6585433e-04 
-1.7189796e-01 -1.5649086e-01 -2.2278940e-03 
-1.7185928e-01 -1.5628152e-01 -4.0449420e-04 
-1.7194472e-01 -1.5652685e-01 -2.0998856e-03 
-1.7179227e-01 -1.5612455e-01 5.3174252e-04 
-1.7114811e-01 -1.5575036e-01 -2.3882356e-03 
-1.7115952e-01 -1.5566321e-01 -1.3379634e-03 
-1.7102072e-01 -1.5533501e-01 6.6634378e-04 
-1.7174838e-01 -1.5614109e-01 -1.1148625e-04 
-1.7168081e-01 -1.5600081e-01 6.5311487e-04 
-1.7275189e-01 -1.5699489e-01 1.5569464e-03 
-1.7090438e-01 -1.5541194e-01 -1.3913780e-03 
-1.7029063e-01 -1.5486284e-01 -2.1467546e-03 
-1.7037909e-01 -1.5479679e-01 -4.8368747e-04 
-1.7023338e-01 -1.5456571e-01 4.2021641e-04 
-1.7006199e-01 -1.5462798e-01 -2.0817672e-03 
-1.6968626e-01 -1.5417720e-01 -1.3224325e-03 
-1.7017269e-01 -1.5449157e-01 5.4538460e-04 
-1.6924903e-01 -1.5383577e-01 -2.3766763e-03 
-1.6914397e-01 -1.5343930e-01 7.2069664e-04 
-1.6891396e-01 -1.5330818e-01 -3.4339880e-04 
-1.6881195e-01 -1.5337251e-01 -2.1353429e-03 
-1.6900207e-01 -1.5349239e-01 -1.3571375e-03 
-1.6962613e-01 -1.5399288e-01 -4.4054877e-06 
-1.7053229e-01 -1.5475298e-01 1.6135150e-03 
-1.6834031e-01 -1.5265372e-01 4.7467827e-04 
-1.6933396e-01 -1.5362573e-01 7.6924794e-04 
-1.6820383e-01 -1.5268302e-01 -1.3074684e-03 
-1.6814160e-01 -1.5269192e-01 -2.0630148e-03 
-1.6819859e-01 -1.5249954e-01 5.8745121e-04 
-1.6742730e-01 -1.5180856e-01 -3.1329834e-04 
-1.6732460e-01 -1.5187427e-01 -2.1239952e-03 
-1.6731194e-01 -1.5188387e-01 -2.3649852e-03 
-1.6722807e-01 -1.5150492e-01 7.7533606e-04 
-1.6706157e-01 -1.5153518e-01 -1.3216789e-03 
-1.6671248e-01 -1.5118049e-01 -1.2918328e-03 
-1.6750824e-01 -1.5186322e-01 -3.4674296e-05 
-1.6831669e-01 -1.5251611e-01 1.6687536e-03 
-1.6640733e-01 -1.5070252e-01 5.2948151e-04 
-1.6618226e-01 -1.5071762e-01 -2.0436337e-03 
-1.6717803e-01 -1.5144841e-01 8.4003614e-04 
-1.6593178e-01 -1.5030029e-01 -2.8342492e-04 
-1.6582870e-01 -1.5036720e-01 -2.1125812e-03 
-1.6615704e-01 -1.5043996e-01 6.3543377e-04 
-1.6533527e-01 -1.4989334e-01 -2.3528221e-03 
-1.6521244e-01 -1.4966887e-01 -1.2757471e-03 
-1.6527154e-01 -1.4953074e-01 8.3009840e-04 
-1.6508147e-01 -1.4953892e-01 -1.2850033e-03 
-1.6442770e-01 -1.4878400e-01 -2.5348464e-04 
-1.6432357e-01 -1.4885108e-01 -2.1015427e-03 
-1.6443318e-01 -1.4871119e-01 5.8485271e-04 
-1.6610529e-01 -1.5028475e-01 1.7224891e-03 
-1.6418277e-01 -1.4870398e-01 -2.0235104e-03 
-1.6500798e-01 -1.4934896e-01 -5.7491958e-05 
-1.6503927e-01 -1.4928882e-01 9.1322523e-04 
-1.6370282e-01 -1.4814876e-01 -1.2605280e-03 
-1.6408448e-01 -1.4835012e-01 6.8331207e-04 
-1.6331795e-01 -1.4786302e-01 -2.3397857e-03 
-1.6327353e-01 -1.4751585e-01 8.8443182e-04 
-1.6335374e-01 -1.4778468e-01 -1.1123788e-03 
-1.6291320e-01 -1.4725827e-01 -2.2362078e-04 
-1.6280927e-01 -1.4732747e-01 -2.0890839e-03 
-1.6241710e-01 -1.4667872e-01 6.3969911e-04 
-1.6389841e-01 -1.4805864e-01 1.7766493e-03 
-1.6218446e-01 -1.4662081e-01 -1.2435972e-03 
-1.6214256e-01 -1.4665036e-01 -2.0026620e-03 
-1.6287732e-01 -1.4710981e-01 9.5916056e-04 
-1.6259819e-01 -1.4690471e-01 1.5754311e-04 
-1.6201599e-01 -1.4626534e-01 7.3147897e-04 
-1.6139083e-01 -1.4572522e-01 -1.9300086e-04 
-1.6128534e-01 -1.4579478e-01 -2.0768826e-03 
-1.6125971e-01 -1.4579235e-01 -2.3271567e-03 
-1.6123301e-01 -1.4545943e-01 9.3857100e-04 
-1.6128576e-01 -1.4569302e-01 -9.7932084e-04 
-1.6065639e-01 -1.4508343e-01 -1.2272967e-03 
-1.6035883e-01 -1.4460443e-01 6.9456513e-04 
-1.6022840e-01 -1.4463605e-01 -1.0429160e-03 
-1.6169651e-01 -1.4583974e-01 1.8286246e-03 
-1.6006033e-01 -1.4455563e-01 -1.9810500e-03 
-1.6074777e-01 -1.4496715e-01 9.7292231e-04 
-1.5985863e-01 -1.4418298e-01 -1.6432212e-04 
-1.5975216e-01 -1.4425251e-01 -2.0652644e-03 
-1.5993156e-01 -1.4416558e-01 7.8234827e-04 
-1.6040771e-01 -1.4469115e-01 2.7672912e-04 
-1.5915860e-01 -1.4367986e-01 -2.3130877e-03 
-1.5911934e-01 -1.4353751e-01 -1.2120695e-03 
-1.5914840e-01 -1.4335984e-01 9.9295320e-04 
-1.5914887e-01 -1.4354140e-01 -9.2603703e-04 
-1.5831681e-01 -1.4263137e-01 -1.3438081e-04 
-1.5821092e-01 -1.4270312e-01 -2.0529958e-03 
-1.5825407e-01 -1.4248593e-01 7.4898620e-04 
-1.5949814e-01 -1.4362513e-01 1.8797776e-03 
-1.5793450e-01 -1.4241840e-01 -1.9583357e-03 
-1.5859970e-01 -1.4280453e-01 1.0166134e-03 
-1.5757298e-01 -1.4198311e-01 -1.1954207e-03 
-1.5781327e-01 -1.4203371e-01 8.3102298e-04 
-1.5825953e-01 -1.4251953e-01 4.2072422e-04 
-1.5710294e-01 -1.4144738e-01 -4.9958372e-04 
-1.5701309e-01 -1.4152463e-01 -2.2996578e-03 
-1.5701805e-01 -1.4121599e-01 1.0466545e-03 
-1.5676609e-01 -1.4107290e-01 -1.0445909e-04 
-1.5694034e-01 -1.4131509e-01 -8.2829664e-04 
-1.5644553e-01 -1.4093722e-01 -2.1174164e-03 
-1.5610443e-01 -1.4032339e-01 8.0393534e-04 
-1.5601632e-01 -1.4042012e-01 -1.1794036e-03 
-1.5730709e-01 -1.4142039e-01 1.9285905e-03 
-1.5575592e-01 -1.4021955e-01 -1.8224091e-03 
-1.5638672e-01 -1.4058186e-01 1.0373732e-03 
-1.5574932e-01 -1.3995640e-01 8.9107640e-04 
-1.5617780e-01 -1.4040749e-01 6.6492817e-04 
-1.5521058e-01 -1.3951044e-01 -8.2017243e-05 
-1.5510352e-01 -1.3958263e-01 -2.0263966e-03 
-1.5482278e-01 -1.3932544e-01 -2.2850516e-03 
-1.5485238e-01 -1.3903904e-01 1.0990051e-03 
-1.5446174e-01 -1.3885902e-01 -1.1629608e-03 
-1.5431131e-01 -1.3867085e-01 -7.5396081e-04 
-1.5392521e-01 -1.3813356e-01 8.5837516e-04 
-1.5512452e-01 -1.3922654e-01 1.9750474e-03 
-1.5366206e-01 -1.3795532e-01 -6.4344989e-05 
-1.5355617e-01 -1.3802852e-01 -2.0091794e-03 
-1.5358064e-01 -1.3804747e-01 -1.9286408e-03 
-1.5399826e-01 -1.3821687e-01 7.1357359e-04 
-1.5372612e-01 -1.3790736e-01 1.1041592e-03 
-1.5319353e-01 -1.3738969e-01 9.4376144e-04 
-1.5291812e-01 -1.3730888e-01 -1.1459923e-03 
-1.5264291e-01 -1.3713790e-01 -2.2716792e-03 
-1.5269488e-01 -1.3687116e-01 1.1529358e-03 
-1.5230842e-01 -1.3669641e-01 -1.1101322e-03 
-1.5212524e-01 -1.3641326e-01 -4.7950060e-05 
-1.5190428e-01 -1.3637844e-01 -2.0800612e-03 
-1.5178253e-01 -1.3598053e-01 9.1076439e-04 
-1.5294743e-01 -1.3704008e-01 2.0206647e-03 
-1.5141849e-01 -1.3588025e-01 -1.9254459e-03 
-1.5138510e-01 -1.3577119e-01 -1.1303362e-03 
-1.5138148e-01 -1.3556825e-01 9.9720561e-04 
-1.5167311e-01 -1.3593432e-01 2.1463653e-04 
-1.5185422e-01 -1.3601115e-01 1.3262470e-03 
-1.5109767e-01 -1.3528413e-01 9.9206495e-04 
-1.5049623e-01 -1.3498533e-01 -2.2566435e-03 
-1.5059800e-01 -1.3488179e-01 -3.2531036e-05 
-1.5049337e-01 -1.3495523e-01 -1.9746339e-03 
-1.5057339e-01 -1.3473967e-01 1.2035564e-03 
-1.5016562e-01 -1.3455133e-01 -1.1290436e-03 
-1.4986382e-01 -1.3424593e-01 -1.1141405e-03 
-1.4967576e-01 -1.3386503e-01 9.5933181e-04 
-1.5077749e-01 -1.3486187e-01 2.0676630e-03 
-1.4929059e-01 -1.3374853e-01 -1.9211653e-03 
-1.4911276e-01 -1.3358214e-01 -2.0744449e-03 
-1.4908414e-01 -1.3336454e-01 -1.8399523e-05 
-1.4928243e-01 -1.3346009e-01 1.0490045e-03 
-1.4968728e-01 -1.3383588e-01 1.3728933e-03 
-1.4965555e-01 -1.3385685e-01 8.0814399e-04 
-1.4838356e-01 -1.3286805e-01 -2.2416965e-03 
-1.4890240e-01 -1.3319208e-01 -1.4420452e-04 
-1.4848708e-01 -1.3264628e-01 1.2514981e-03 
-1.4835511e-01 -1.3273326e-01 -1.0989865e-03 
-1.4863065e-01 -1.3280791e-01 1.0415352e-03 
-1.4805742e-01 -1.3244225e-01 -1.1465455e-03 
-1.4758089e-01 -1.3185745e-01 -3.9026281e-06 
-1.4760363e-01 -1.3178690e-01 1.0068900e-03 
-1.4861090e-01 -1.3268737e-01 2.1096028e-03 
-1.4719637e-01 -1.3165209e-01 -1.9162216e-03 
-1.4715517e-01 -1.3162246e-01 -2.0771758e-03 
-1.4721863e-01 -1.3139023e-01 1.0988055e-03 
-1.4685553e-01 -1.3123195e-01 -1.0830609e-03 
-1.4752531e-01 -1.3166542e-01 1.4184116e-03 
-1.4749306e-01 -1.3168591e-01 8.5449888e-04 
-1.4630365e-01 -1.3078623e-01 -2.2267902e-03 
-1.4643578e-01 -1.3059016e-01 1.2969772e-03 
-1.4608766e-01 -1.3036360e-01 8.9164814e-06 
-1.4598486e-01 -1.3043720e-01 -1.9235149e-03 
-1.4640176e-01 -1.3070098e-01 -2.5787900e-04 
-1.4647515e-01 -1.3064739e-01 1.0811364e-03 
-1.4598261e-01 -1.3036871e-01 -1.1622435e-03 
-1.4556628e-01 -1.2994261e-01 -1.0818169e-03 
-1.4556737e-01 -1.2974672e-01 1.0513422e-03 
-1.4536840e-01 -1.2974292e-01 -1.0671311e-03 
-1.4645277e-01 -1.3052289e-01 2.1505952e-03 
-1.4510947e-01 -1.2958705e-01 -2.1812099e-03 
-1.4513595e-01 -1.2959093e-01 -1.9100639e-03 
-1.4519036e-01 -1.2935767e-01 1.1462892e-03 
-1.4537314e-01 -1.2950954e-01 1.4614078e-03 
-1.4534023e-01 -1.2952965e-01 8.9916965e-04 
-1.4460734e-01 -1.2888363e-01 2.1129446e-05 
-1.4450327e-01 -1.2895516e-01 -1.9058106e-03 
-1.4441232e-01 -1.2874107e-01 -5.5970735e-04 
-1.4425629e-01 -1.2873848e-01 -2.2103859e-03 
-1.4435245e-01 -1.2865672e-01 -2.9172591e-04 
-1.4442092e-01 -1.2857187e-01 1.3387261e-03 
-1.4425519e-01 -1.2855242e-01 -2.0932127e-04 
-1.4432941e-01 -1.2849970e-01 1.1190287e-03 
-1.4394267e-01 -1.2833124e-01 -1.1747752e-03 
-1.4389315e-01 -1.2826820e-01 -1.0532126e-03 
-1.4363536e-01 -1.2811309e-01 -2.1628896e-03 
-1.4356533e-01 -1.2774321e-01 1.0907943e-03 
-1.4320201e-01 -1.2764761e-01 -1.8184874e-03 
-1.4310707e-01 -1.2756453e-01 -1.9041604e-03 
-1.4430442e-01 -1.2837240e-01 2.1893675e-03 
-1.4307249e-01 -1.2744792e-01 -1.0444203e-03 
-1.4313860e-01 -1.2741506e-01 3.2058284e-05 
-1.4319828e-01 -1.2736413e-01 1.1933380e-03 
-1.4323072e-01 -1.2736675e-01 1.5026710e-03 
-1.4319728e-01 -1.2738645e-01 9.4207271e-04 
-1.4243083e-01 -1.2680656e-01 -1.0373584e-03 
-1.4224334e-01 -1.2672774e-01 -2.1947199e-03 
-1.4243741e-01 -1.2658879e-01 1.3783611e-03 
-1.4193413e-01 -1.2632824e-01 -1.1909945e-03 
-1.4211863e-01 -1.2641428e-01 -1.5957489e-04 
-1.4219317e-01 -1.2636352e-01 1.1576064e-03 
-1.4168292e-01 -1.2596124e-01 4.3788790e-05 
-1.4157236e-01 -1.2594248e-01 -9.4455160e-04 
-1.4157981e-01 -1.2603401e-01 -1.8701587e-03 
-1.4159723e-01 -1.2577479e-01 1.1306985e-03 
-1.4111114e-01 -1.2557139e-01 -1.8973214e-03 
-1.4216638e-01 -1.2623471e-01 2.2257252e-03 
-1.4123853e-01 -1.2540416e-01 1.2357188e-03 
-1.4097948e-01 -1.2535773e-01 -1.0235483e-03 
-1.4072463e-01 -1.2520540e-01 -2.1316810e-03 
-1.4039424e-01 -1.2469190e-01 -1.3728018e-04 
-1.4049041e-01 -1.2464238e-01 1.4157866e-03 
-1.4026091e-01 -1.2474847e-01 -2.1781037e-03 
-1.4109872e-01 -1.2523541e-01 1.5419369e-03 
-1.4106482e-01 -1.2525450e-01 9.8291785e-04 
-1.4019594e-01 -1.2456830e-01 -9.3424338e-04 
-1.4023328e-01 -1.2455188e-01 -3.4712916e-04 
-1.4023691e-01 -1.2451872e-01 5.4639444e-05 
-1.4013514e-01 -1.2459231e-01 -1.8534287e-03 