# vtk DataFile Version 4.0
vtk output
ASCII
DATASET UNSTRUCTURED_GRID
POINTS 6166 float
-4.3633327e-01 9.6409470e-01 4.4200001e+01 
-4.3633261e-01 9.6409082e-01 4.4079685e+01 
-3.2145375e-01 9.1276109e-01 4.4200001e+01 
-3.8566181e-01 8.4097892e-01 4.4200001e+01 
-3.3069235e-01 9.1895354e-01 4.4019413e+01 
-3.8473952e-01 8.3919770e-01 4.4024357e+01 
-4.3633196e-01 9.6408689e-01 4.3958702e+01 
-2.1293370e-01 8.4677851e-01 4.4200001e+01 
-2.9042658e-01 7.3813015e-01 4.4200001e+01 
-2.1019450e-01 8.4669626e-01 4.4077393e+01 
-2.8909999e-01 7.3605996e-01 4.4073399e+01 
-3.2963324e-01 9.1929907e-01 4.3898094e+01 
-3.8679782e-01 8.4179753e-01 4.3889645e+01 
-2.0740938e-01 8.4661204e-01 4.3952713e+01 
-4.3633130e-01 9.6408290e-01 4.3837040e+01 
-1.1677200e-01 7.7521002e-01 4.4200001e+01 
-2.8775173e-01 7.3395580e-01 4.3944717e+01 
-1.9365783e-01 6.6203654e-01 4.4200001e+01 
-1.1309985e-01 7.7540898e-01 4.4012005e+01 
-1.9181472e-01 6.5888047e-01 4.4006447e+01 
-3.2856464e-01 9.1964108e-01 4.3776085e+01 
-3.8823184e-01 8.4352189e-01 4.3765770e+01 
-2.0457739e-01 8.4652513e-01 4.3825886e+01 
-2.8638119e-01 7.3181647e-01 4.3813885e+01 
-4.3633065e-01 9.6407896e-01 4.3714680e+01 
-1.0911675e-01 7.7426714e-01 4.3886200e+01 
-2.1001574e-02 6.8269837e-01 4.4200001e+01 
-1.8902887e-01 6.5566909e-01 4.3876659e+01 
-7.8887597e-02 5.9015810e-01 4.4200001e+01 
-3.2748649e-01 9.1997939e-01 4.3653378e+01 
-3.9889076e-01 8.5876143e-01 4.3651733e+01 
-2.0169757e-01 8.4643483e-01 4.3696846e+01 
-7.2496021e-03 6.7325598e-01 4.3947758e+01 
-1.0504345e-01 7.7307969e-01 4.3758209e+01 
-2.8498772e-01 7.2964084e-01 4.3680840e+01 
-6.3224643e-02 5.7783771e-01 4.3940754e+01 
3.5808440e-02 6.2679136e-01 4.4056572e+01 
-1.8616955e-01 6.5238589e-01 4.3744686e+01 
-4.3632996e-01 9.6407503e-01 4.3591618e+01 
-9.8678423e-03 5.4892725e-01 4.4055367e+01 
-1.8652271e-02 6.8798620e-01 4.3834026e+01 
-7.9845116e-02 5.8636194e-01 4.3823372e+01 
8.7777540e-02 5.7885915e-01 4.4200001e+01 
5.3622175e-02 5.1732427e-01 4.4200001e+01 
-3.2639861e-01 9.2031354e-01 4.3529953e+01 
-3.9894739e-01 8.5844576e-01 4.3528313e+01 
-1.9876897e-01 8.4634024e-01 4.3565521e+01 
-1.0087753e-01 7.7184403e-01 4.3627972e+01 
-2.8357074e-01 7.2742778e-01 4.3545506e+01 
-1.8323407e-01 6.4902818e-01 4.3610458e+01 
-4.3632931e-01 9.6407109e-01 4.3467831e+01 
3.1033519e-03 6.6751039e-01 4.3691772e+01 
-5.3600248e-02 5.6906003e-01 4.3676846e+01 
1.2436585e-01 5.5082864e-01 4.3886215e+01 
1.7079005e-01 5.1095647e-01 4.4054855e+01 
1.4951277e-01 4.6697062e-01 4.4053665e+01 
1.0028158e-01 4.8915190e-01 4.3877911e+01 
-4.0513036e-01 8.6722642e-01 4.3405304e+01 
-3.2530096e-01 9.2064321e-01 4.3405800e+01 
-9.6616447e-02 7.7055699e-01 4.3495411e+01 
-8.4563000e-03 6.8258613e-01 4.3574005e+01 
-1.9579062e-01 8.4624058e-01 4.3431831e+01 
2.1753120e-01 4.7335833e-01 4.4200001e+01 
2.0360756e-01 4.4289169e-01 4.4200001e+01 
-1.8021962e-01 6.4559317e-01 4.3473904e+01 
-7.0636064e-02 5.7773441e-01 4.3555408e+01 
-2.8212959e-01 7.2517604e-01 4.3407806e+01 
-4.3632865e-01 9.6406716e-01 4.3343307e+01 
1.3810426e-01 5.4143524e-01 4.3628246e+01 
-3.2419339e-01 9.2096806e-01 4.3280907e+01 
-3.9903235e-01 8.5775709e-01 4.3279266e+01 
-9.2257597e-02 7.6921552e-01 4.3360443e+01 
1.1508528e-01 4.7804743e-01 4.3612068e+01 
-1.9276154e-01 8.4613472e-01 4.3295704e+01 
1.4013666e-02 6.6131532e-01 4.3426643e+01 
-1.7712323e-01 6.4207786e-01 4.3334946e+01 
-2.8066361e-01 7.2288430e-01 4.3267666e+01 
-4.3382257e-02 5.5983055e-01 4.3403778e+01 
-4.3632799e-01 9.6406323e-01 4.3218033e+01 
3.7877345e-01 3.8273901e-01 4.4200001e+01 
3.9076596e-01 3.7443376e-01 4.3993755e+01 
-3.2307580e-01 9.2128778e-01 4.3155251e+01 
-3.9906058e-01 8.5738426e-01 4.3153610e+01 
-8.7798268e-02 7.6781619e-01 4.3222996e+01 
1.9689407e-02 6.5803534e-01 4.3290459e+01 
-6.0862999e-02 5.6866169e-01 4.3278019e+01 
-1.8968078e-01 8.4602165e-01 4.3157055e+01 
-1.7394182e-01 6.3847917e-01 4.3193501e+01 
-4.3632734e-01 9.6405929e-01 4.3091995e+01 
4.0275589e-01 3.6612594e-01 4.3787510e+01 
1.2304078e-01 5.5709994e-01 4.3330139e+01 
-2.7917209e-01 7.2055119e-01 4.3125000e+01 
2.5336364e-01 4.4907436e-01 4.3468094e+01 
2.3670304e-01 4.1684708e-01 4.3469433e+01 
1.3086085e-01 4.6634668e-01 4.3336948e+01 
-3.8351217e-01 8.3473074e-01 4.3036392e+01 
-3.2194808e-01 9.2160189e-01 4.3028820e+01 
2.5518833e-02 6.5462554e-01 4.3151749e+01 
-8.3235659e-02 7.6635528e-01 4.3082981e+01 
4.1474071e-01 3.5781288e-01 4.3581264e+01 
-1.8654740e-01 8.4590012e-01 4.3015797e+01 
-3.2522827e-02 5.5011308e-01 4.3120937e+01 
-1.7067213e-01 6.3479382e-01 4.3049488e+01 
-4.3632668e-01 9.6405542e-01 4.2965172e+01 
-2.7765438e-01 7.1817529e-01 4.2979721e+01 
2.6620242e-01 4.4011977e-01 4.3261948e+01 
1.3584816e-02 6.7044950e-01 4.3025066e+01 
-3.2081014e-01 9.2191011e-01 4.2901604e+01 
-3.8160574e-01 8.3169121e-01 4.2902863e+01 
-7.8566879e-02 7.6482886e-01 4.2940315e+01 
-5.0480481e-02 5.5910730e-01 4.2990566e+01 
4.2671782e-01 3.4949207e-01 4.3375019e+01 
1.6821145e-01 5.2049083e-01 4.3083881e+01 
-1.8336046e-01 8.4576881e-01 4.2871841e+01 
-4.3632606e-01 9.6405160e-01 4.2837555e+01 
-1.6731077e-01 6.3101834e-01 4.2902817e+01 
1.4768846e-01 4.5400122e-01 4.3051926e+01 
-2.7610970e-01 7.1575516e-01 4.2831745e+01 
-3.1966189e-01 9.2221189e-01 4.2773579e+01 
-3.8560396e-01 8.3684862e-01 4.2767078e+01 
3.7660085e-02 6.4738947e-01 4.2866421e+01 
-7.3788933e-02 7.6323271e-01 4.2794899e+01 
4.3868470e-01 3.4116083e-01 4.3168777e+01 
-4.3632543e-01 9.6404779e-01 4.2709122e+01 
-2.0968946e-02 5.3986710e-01 4.2827656e+01 
-1.8011902e-01 8.4562629e-01 4.2725094e+01 
-1.6385415e-01 6.2714905e-01 4.2753403e+01 
-2.7453732e-01 7.1328926e-01 4.2680973e+01 
-3.1850323e-01 9.2250693e-01 4.2644733e+01 
-3.9907700e-01 8.5570478e-01 4.2643101e+01 
2.5504474e-02 6.6361672e-01 4.2734810e+01 
1.8471870e-01 5.0880390e-01 4.2796177e+01 
-6.8898737e-02 7.6156229e-01 4.2646645e+01 
-3.9438177e-02 5.4903054e-01 4.2692345e+01 
-4.3632481e-01 9.6404403e-01 4.2579861e+01 
4.5063871e-01 3.3281663e-01 4.2962532e+01 
1.6565691e-01 4.4095638e-01 4.2756321e+01 
-1.7682223e-01 8.4547096e-01 4.2575459e+01 
-1.6029853e-01 6.2318206e-01 4.2601143e+01 
-4.0415615e-01 8.6278629e-01 4.2516582e+01 
-3.1733403e-01 9.2279470e-01 4.2515053e+01 
-2.7293649e-01 7.1077597e-01 4.2527313e+01 
5.0482783e-02 6.3954860e-01 4.2569923e+01 
-4.3632418e-01 9.6404034e-01 4.2449757e+01 
-6.3893095e-02 7.5981271e-01 4.2495445e+01 
-8.6617703e-03 5.2904755e-01 4.2523201e+01 
-1.7346917e-01 8.4530097e-01 4.2422829e+01 
-1.5663996e-01 6.1911333e-01 4.2445942e+01 
3.0435190e-01 4.1341871e-01 4.2643494e+01 
4.6257737e-01 3.2445681e-01 4.2756287e+01 
-3.1615424e-01 9.2307472e-01 4.2384518e+01 
-3.9902648e-01 8.5475212e-01 4.2382885e+01 
-2.7130640e-01 7.0821363e-01 4.2370659e+01 
3.8079392e-02 6.5619886e-01 4.2433029e+01 
2.0230262e-01 4.9620378e-01 4.2497147e+01 
-4.3632355e-01 9.6403670e-01 4.2318787e+01 
-5.8768708e-02 7.5797862e-01 4.2341198e+01 
-2.7680276e-02 5.3838593e-01 4.2382599e+01 
1.8486446e-01 4.2715022e-01 4.2449394e+01 
-3.8436696e-01 8.3356136e-01 4.2264896e+01 
8.9545198e-02 5.3233254e-01 4.2382050e+01 
-3.3225983e-01 9.3122375e-01 4.2255634e+01 
-1.7005907e-01 8.4511453e-01 4.2267101e+01 
-1.5287429e-01 6.1493850e-01 4.2287693e+01 
4.7449806e-01 3.1607881e-01 4.2550037e+01 
-2.6964626e-01 7.0560038e-01 4.2210907e+01 
-4.3632296e-01 9.6403313e-01 4.2186939e+01 
6.4036883e-02 6.3103610e-01 4.2261456e+01 
-5.3522192e-02 7.5605446e-01 4.2183796e+01 
-3.7873057e-01 8.2541841e-01 4.2124020e+01 
-3.1376252e-01 9.2360973e-01 4.2120819e+01 
4.4639236e-03 5.1760370e-01 4.2206776e+01 
-1.6659111e-01 8.4490943e-01 4.2108162e+01 
-1.4899719e-01 6.1065292e-01 4.2126286e+01 
-4.3632239e-01 9.6402961e-01 4.2054195e+01 
4.8639825e-01 3.0768004e-01 4.2343792e+01 
-2.6795524e-01 7.0293444e-01 4.2047943e+01 
2.4746621e-01 4.6040925e-01 4.2191032e+01 
7.1105182e-02 6.2650448e-01 4.2102463e+01 
-3.1255043e-01 9.2386365e-01 4.1987617e+01 
-4.8150036e-02 7.5403398e-01 4.2023121e+01 
-1.5144684e-02 5.2712250e-01 4.2060505e+01 
-3.7995064e-01 8.2661813e-01 4.1980038e+01 
2.0541981e-01 4.1251117e-01 4.2130333e+01 
-1.6306458e-01 8.4468329e-01 4.1945896e+01 
-4.3632182e-01 9.6402621e-01 4.1920536e+01 
-1.4500406e-01 6.0625184e-01 4.1961609e+01 
1.3375351e-01 5.6370503e-01 4.1969833e+01 
-2.6623246e-01 7.0021385e-01 4.1881653e+01 
-3.1132740e-01 9.2410773e-01 4.1853493e+01 
-3.9880505e-01 8.5261923e-01 4.1851868e+01 
4.9827534e-01 2.9925787e-01 4.2137547e+01 
3.4194937e-01 3.8685825e-01 4.2025021e+01 
-4.2648647e-02 7.5191063e-01 4.1859051e+01 
-2.5401810e-01 7.9503769e-01 4.1808533e+01 
1.8480448e-02 5.0547802e-01 4.1877510e+01 
-4.3632126e-01 9.6402287e-01 4.1785946e+01 
-1.5947884e-01 8.4443361e-01 4.1780174e+01 
-1.4089009e-01 6.0172999e-01 4.1793541e+01 
-3.1009343e-01 9.2434150e-01 4.1718426e+01 
-4.0306881e-01 8.5845691e-01 4.1716179e+01 
8.5861288e-02 6.1683756e-01 4.1774368e+01 
-2.6447710e-01 6.9743657e-01 4.1711910e+01 
3.0427080e-01 4.1638452e-01 4.1839512e+01 
2.6751360e-01 3.7833902e-01 4.1830902e+01 
5.1012677e-01 2.9080975e-01 4.1931297e+01 
-3.7014309e-02 7.4967718e-01 4.1691463e+01 
-4.3632072e-01 9.6401966e-01 4.1650398e+01 
2.5847588e-02 4.9913955e-01 4.1707767e+01 
-1.5583332e-01 8.4415752e-01 4.1610870e+01 
-3.8322043e-01 8.2981020e-01 4.1595791e+01 
-3.0884841e-01 9.2456430e-01 4.1582397e+01 
-1.3665022e-01 5.9708190e-01 4.1621960e+01 
9.3565010e-02 6.1167872e-01 4.1605015e+01 
-2.6268822e-01 6.9460052e-01 4.1538593e+01 
-4.3632022e-01 9.6401656e-01 4.1513885e+01 
-3.1243213e-02 7.4732590e-01 4.1520226e+01 
2.7603787e-01 3.7115356e-01 4.1624012e+01 
2.8505871e-01 4.3281260e-01 4.1611507e+01 
5.2195001e-01 2.8233302e-01 4.1725052e+01 
3.3468332e-02 4.9260557e-01 4.1534447e+01 
-3.9853087e-01 8.5081697e-01 4.1443768e+01 
-3.2560509e-01 9.3245691e-01 4.1443577e+01 
-1.5212752e-01 8.4385180e-01 4.1437847e+01 
-1.3227913e-01 5.9230179e-01 4.1446728e+01 
-4.3631971e-01 9.6401358e-01 4.1376381e+01 
[...]
POINT_DATA 6166
FIELD FieldData 5
DISPLACEMENT 3 6166  float
1.4322165e-01 1.2923503e-01 -8.6737477e-04 
1.4245686e-01 1.2846915e-01 -8.6256379e-04 
1.4324702e-01 1.2929365e-01 -1.2714015e-03 
1.4328718e-01 1.2926295e-01 -4.0634556e-04 
1.4209595e-01 1.2813935e-01 -1.2448489e-03 
1.4217164e-01 1.2814538e-01 -3.9388737e-04 
1.4168784e-01 1.2769905e-01 -8.5772376e-04 
1.4328046e-01 1.2934938e-01 -1.5417894e-03 
1.4334083e-01 1.2931278e-01 -3.5768139e-04 
1.4250109e-01 1.2857029e-01 -1.5538052e-03 
1.4253716e-01 1.2850758e-01 -3.4790777e-04 
1.4132459e-01 1.2736762e-01 -1.2489439e-03 
1.4131398e-01 1.2728681e-01 -3.9198840e-04 
1.4170852e-01 1.2777799e-01 -1.5660118e-03 
1.4091453e-01 1.2692463e-01 -8.5285382e-04 
1.4331718e-01 1.2939906e-01 -1.6980416e-03 
1.4172027e-01 1.2768915e-01 -3.3798150e-04 
1.4337999e-01 1.2936285e-01 -4.8899115e-04 
1.4212197e-01 1.2820415e-01 -1.7151773e-03 
1.4215130e-01 1.2813172e-01 -4.7292988e-04 
1.4054890e-01 1.2659153e-01 -1.2530363e-03 
1.4052570e-01 1.2649758e-01 -3.8892939e-04 
1.4090236e-01 1.2697208e-01 -1.5784017e-03 
1.4088976e-01 1.2685712e-01 -3.2790468e-04 
1.4013687e-01 1.2614588e-01 -8.4795209e-04 
1.4132279e-01 1.2740530e-01 -1.7282199e-03 
1.4336523e-01 1.2944897e-01 -1.7185570e-03 
1.4132790e-01 1.2730698e-01 -4.6506361e-04 
1.4341651e-01 1.2942186e-01 -7.6159771e-04 
1.3976881e-01 1.2581106e-01 -1.2571214e-03 
1.3979290e-01 1.2576616e-01 -4.1359072e-04 
1.4008215e-01 1.2615214e-01 -1.5909686e-03 
1.4176659e-01 1.2785028e-01 -1.7359045e-03 
1.4050981e-01 1.2659262e-01 -1.7414571e-03 
1.4004523e-01 1.2601101e-01 -3.1767649e-04 
1.4177483e-01 1.2777962e-01 -7.7251374e-04 
1.4248255e-01 1.2856555e-01 -1.7184630e-03 
1.4049070e-01 1.2646841e-01 -4.5714618e-04 
1.3935477e-01 1.2536271e-01 -8.4301521e-04 
1.4251794e-01 1.2853655e-01 -9.3246793e-04 
1.4103593e-01 1.2712026e-01 -1.7525655e-03 
1.4102435e-01 1.2702386e-01 -7.1638974e-04 
1.4341918e-01 1.2950568e-01 -1.7497332e-03 
1.4345320e-01 1.2948982e-01 -1.1409424e-03 
1.3898425e-01 1.2502614e-01 -1.2611875e-03 
1.3900867e-01 1.2498069e-01 -4.0633284e-04 
1.3924749e-01 1.2531775e-01 -1.6037100e-03 
1.3968259e-01 1.2576571e-01 -1.7548602e-03 
1.3918622e-01 1.2515044e-01 -3.0728473e-04 
1.3963923e-01 1.2561557e-01 -4.4915019e-04 
1.3856816e-01 1.2457502e-01 -8.3801668e-04 
1.4014226e-01 1.2622596e-01 -1.7549803e-03 
1.4010167e-01 1.2610458e-01 -7.6740346e-04 
1.4143881e-01 1.2752689e-01 -1.7916026e-03 
1.4253148e-01 1.2862466e-01 -1.8398805e-03 
1.4254817e-01 1.2860732e-01 -1.4246054e-03 
1.4141987e-01 1.2746325e-01 -1.2456165e-03 
1.3822243e-01 1.2419478e-01 -4.1803229e-04 
1.3819513e-01 1.2423667e-01 -1.2652358e-03 
1.3884069e-01 1.2492410e-01 -1.7684380e-03 
1.3938582e-01 1.2547019e-01 -1.7726560e-03 
1.3839793e-01 1.2446845e-01 -1.6166207e-03 
1.4347361e-01 1.2957299e-01 -1.9037108e-03 
1.4349039e-01 1.2956662e-01 -1.6212672e-03 
1.3877307e-01 1.2474807e-01 -4.4112626e-04 
1.3932543e-01 1.2532292e-01 -7.0947892e-04 
1.3831227e-01 1.2427498e-01 -2.9676620e-04 
1.3777696e-01 1.2378281e-01 -8.3302060e-04 
1.3980363e-01 1.2589158e-01 -1.8089436e-03 
1.3740139e-01 1.2344266e-01 -1.2692990e-03 
1.3742653e-01 1.2339618e-01 -3.9164055e-04 
1.3798365e-01 1.2406739e-01 -1.7821592e-03 
1.3973545e-01 1.2577836e-01 -1.2585629e-03 
1.3753296e-01 1.2360382e-01 -1.6296646e-03 
1.3846020e-01 1.2454385e-01 -1.7743383e-03 
1.3789178e-01 1.2386545e-01 -4.3306578e-04 
1.3742298e-01 1.2338413e-01 -2.8605701e-04 
1.3837068e-01 1.2437179e-01 -7.6295913e-04 
1.3698113e-01 1.2298596e-01 -8.2796527e-04 
1.4351933e-01 1.2965576e-01 -2.3526542e-03 
1.4221236e-01 1.2834871e-01 -2.3678723e-03 
1.3660297e-01 1.2264393e-01 -1.2733613e-03 
1.3662852e-01 1.2259699e-01 -3.8415869e-04 
1.3711101e-01 1.2319511e-01 -1.7960031e-03 
1.3759641e-01 1.2368006e-01 -1.7840441e-03 
1.3756707e-01 1.2356269e-01 -7.0312928e-04 
1.3665214e-01 1.2272336e-01 -1.6428110e-03 
1.3699490e-01 1.2296728e-01 -4.2497605e-04 
1.3618055e-01 1.2218447e-01 -8.2287705e-04 
1.4090534e-01 1.2704161e-01 -2.3830698e-03 
1.3790065e-01 1.2398600e-01 -1.8008305e-03 
1.3651781e-01 1.2247754e-01 -2.7519956e-04 
1.3883293e-01 1.2493136e-01 -1.9479778e-03 
1.3885912e-01 1.2493223e-01 -1.6369647e-03 
1.3799247e-01 1.2403508e-01 -1.2735208e-03 
1.3589583e-01 1.2185984e-01 -3.3437600e-04 
1.3579983e-01 1.2184055e-01 -1.2773119e-03 
1.3671680e-01 1.2280049e-01 -1.7938418e-03 
1.3622224e-01 1.2230679e-01 -1.8099869e-03 
1.3959832e-01 1.2573455e-01 -2.3981791e-03 
1.3575494e-01 1.2182660e-01 -1.6561792e-03 
1.3657823e-01 1.2257779e-01 -7.5924461e-04 
1.3608183e-01 1.2205303e-01 -4.1676298e-04 
1.3537522e-01 1.2137823e-01 -8.1771123e-04 
1.3559626e-01 1.2155458e-01 -2.6419020e-04 
1.3752706e-01 1.2362543e-01 -1.9643151e-03 
1.3590381e-01 1.2198843e-01 -1.8134478e-03 
1.3499182e-01 1.2103244e-01 -1.2812425e-03 
1.3504943e-01 1.2101205e-01 -3.2193254e-04 
1.3531685e-01 1.2140188e-01 -1.8240900e-03 
1.3574556e-01 1.2173957e-01 -6.9730874e-04 
1.3829125e-01 1.2442707e-01 -2.4130389e-03 
1.3635443e-01 1.2244212e-01 -1.8454100e-03 
1.3484085e-01 1.2091302e-01 -1.6696403e-03 
1.3456500e-01 1.2056719e-01 -8.1246917e-04 
1.3515221e-01 1.2112229e-01 -4.0860107e-04 
1.3618739e-01 1.2223005e-01 -1.2909428e-03 
1.3465779e-01 1.2061485e-01 -2.5301770e-04 
1.3417889e-01 1.2021947e-01 -1.2851704e-03 
1.3418472e-01 1.2014719e-01 -3.2406001e-04 
1.3490799e-01 1.2099200e-01 -1.8134478e-03 
1.3439429e-01 1.2047991e-01 -1.8382682e-03 
1.3698439e-01 1.2312006e-01 -2.4278648e-03 
1.3374984e-01 1.1975138e-01 -8.0724986e-04 
1.3472039e-01 1.2071875e-01 -7.5628317e-04 
1.3390933e-01 1.1998210e-01 -1.6831557e-03 
1.3420533e-01 1.2017444e-01 -4.0030081e-04 
1.3370195e-01 1.1965787e-01 -2.4172691e-04 
1.3336112e-01 1.1940168e-01 -1.2889768e-03 
1.3338819e-01 1.1935287e-01 -3.5350348e-04 
1.3406397e-01 1.2014905e-01 -1.8338923e-03 
1.3453269e-01 1.2062067e-01 -1.8645591e-03 
1.3345405e-01 1.1954034e-01 -1.8524751e-03 
1.3385674e-01 1.1984955e-01 -6.9209223e-04 
1.3292980e-01 1.1893080e-01 -8.0203795e-04 
1.3567796e-01 1.2181378e-01 -2.4426191e-03 
1.3431615e-01 1.2035926e-01 -1.3107770e-03 
1.3295984e-01 1.1903343e-01 -1.6967595e-03 
1.3324091e-01 1.1920918e-01 -3.9212208e-04 
1.3258183e-01 1.1854718e-01 -3.6136192e-04 
1.3253836e-01 1.1857922e-01 -1.2928346e-03 
1.3272825e-01 1.1868310e-01 -2.3021513e-04 
1.3302976e-01 1.1911432e-01 -1.8328916e-03 
1.3210475e-01 1.1810523e-01 -7.9669891e-04 
1.3249572e-01 1.1858285e-01 -1.8666796e-03 
1.3279319e-01 1.1879090e-01 -7.5435982e-04 
1.3199192e-01 1.1806642e-01 -1.7104043e-03 
1.3225842e-01 1.1822595e-01 -3.8375609e-04 
1.3361165e-01 1.1971113e-01 -2.0123937e-03 
1.3437209e-01 1.2050823e-01 -2.4571817e-03 
1.3171048e-01 1.1775150e-01 -1.2966939e-03 
1.3173833e-01 1.1770175e-01 -3.3788456e-04 
1.3173606e-01 1.1769011e-01 -2.1847397e-04 
1.3215280e-01 1.1823893e-01 -1.8541956e-03 
1.3264079e-01 1.1872958e-01 -1.8842248e-03 
1.3127455e-01 1.1727475e-01 -7.9141086e-04 
1.3151844e-01 1.1760662e-01 -1.8810718e-03 
1.3189670e-01 1.1788907e-01 -6.8775268e-04 
1.3237475e-01 1.1841921e-01 -1.3333672e-03 
1.3100146e-01 1.1696139e-01 -2.9214629e-04 
1.3189398e-01 1.1794309e-01 -1.3930737e-03 
1.3088979e-01 1.1692636e-01 -1.2406632e-03 
1.3100478e-01 1.1708040e-01 -1.7241013e-03 
1.3125695e-01 1.1722411e-01 -3.7552757e-04 
1.3306670e-01 1.1920307e-01 -2.4711646e-03 
1.3072474e-01 1.1667827e-01 -2.0672755e-04 
1.3043937e-01 1.1643944e-01 -7.8603992e-04 
1.3107750e-01 1.1716334e-01 -1.8521718e-03 
1.3052180e-01 1.1661115e-01 -1.8953575e-03 
1.3011315e-01 1.1607190e-01 -2.7090928e-04 
1.3003960e-01 1.1608149e-01 -1.3039483e-03 
1.3079193e-01 1.1678988e-01 -7.5346470e-04 
1.2999800e-01 1.1607491e-01 -1.7379493e-03 
1.3023604e-01 1.1620301e-01 -3.6708056e-04 
1.2959892e-01 1.1559895e-01 -7.8052818e-04 
1.3176188e-01 1.1789905e-01 -2.4851204e-03 
1.2969378e-01 1.1564695e-01 -1.9478606e-04 
1.3071717e-01 1.1680975e-01 -1.9315389e-03 
1.3007231e-01 1.1615895e-01 -1.8617513e-03 
1.2919621e-01 1.1523900e-01 -1.3074784e-03 
1.2950507e-01 1.1559584e-01 -1.9095553e-03 
1.2986042e-01 1.1585327e-01 -6.8432535e-04 
1.2920083e-01 1.1515990e-01 -2.6532740e-04 
1.3035853e-01 1.1640520e-01 -1.3588602e-03 
1.2897088e-01 1.1504935e-01 -1.7517118e-03 
1.2875307e-01 1.1475336e-01 -7.7488227e-04 
1.2919529e-01 1.1516243e-01 -3.5886318e-04 
1.2926391e-01 1.1535058e-01 -1.8556725e-03 
1.2864256e-01 1.1459581e-01 -1.8274901e-04 
1.2834756e-01 1.1439142e-01 -1.3108635e-03 
1.2837678e-01 1.1433993e-01 -3.0578533e-04 
1.3045840e-01 1.1659683e-01 -2.4988209e-03 
1.2970193e-01 1.1580487e-01 -2.0577740e-03 
1.2846784e-01 1.1456031e-01 -1.9236360e-03 
1.2812999e-01 1.1413766e-01 -8.5631636e-04 
1.2871215e-01 1.1471154e-01 -7.5384788e-04 
1.2790214e-01 1.1390309e-01 -7.6927588e-04 
1.2792294e-01 1.1400346e-01 -1.7650170e-03 
1.2813418e-01 1.1410184e-01 -3.5094118e-04 
1.2749374e-01 1.1353888e-01 -1.3141907e-03 
1.2751617e-01 1.1348105e-01 -3.1080027e-04 
1.2800018e-01 1.1408953e-01 -1.8798256e-03 
1.2757060e-01 1.1352451e-01 -1.7073241e-04 
1.2851223e-01 1.1461098e-01 -1.9986732e-03 
1.2847836e-01 1.1453943e-01 -1.5249668e-03 
1.2915529e-01 1.1529488e-01 -2.5117807e-03 
1.2740965e-01 1.1350422e-01 -1.9374569e-03 
1.2704593e-01 1.1304790e-01 -7.6384598e-04 
1.2764156e-01 1.1364243e-01 -7.5473491e-04 
1.2685366e-01 1.1293651e-01 -1.7783811e-03 
1.2677044e-01 1.1273196e-01 -2.5141740e-04 
1.2663497e-01 1.1268167e-01 -1.3171895e-03 
1.2705182e-01 1.1302063e-01 -3.4254591e-04 
1.2693262e-01 1.1302385e-01 -1.8888891e-03 
1.2647754e-01 1.1243237e-01 -1.5839592e-04 
1.2618491e-01 1.1218776e-01 -7.5833639e-04 
1.2632947e-01 1.1242670e-01 -1.9511546e-03 
1.2717335e-01 1.1323600e-01 -1.5257015e-03 
1.2706210e-01 1.1316006e-01 -1.9714732e-03 
1.2785362e-01 1.1399498e-01 -2.5244753e-03 
1.2654965e-01 1.1255244e-01 -7.5593439e-04 
1.2580119e-01 1.1176673e-01 -2.8151946e-04 
1.2575592e-01 1.1179908e-01 -1.2550632e-03 
1.2576208e-01 1.1184807e-01 -1.7918097e-03 
1.2594803e-01 1.1191853e-01 -3.3451279e-04 
1.2531818e-01 1.1132248e-01 -7.5247040e-04 
1.2601718e-01 1.1210953e-01 -1.8833773e-03 
1.2536241e-01 1.1131890e-01 -1.4613151e-04 
1.2522700e-01 1.1132739e-01 -1.9646839e-03 
1.2490129e-01 1.1095204e-01 -1.3234766e-03 
1.2493160e-01 1.1089890e-01 -2.7318372e-04 
1.2543581e-01 1.1144119e-01 -7.5754337e-04 
1.2593573e-01 1.1200393e-01 -1.5687128e-03 
1.2655383e-01 1.1269759e-01 -2.5366384e-03 
1.2464792e-01 1.1073733e-01 -1.8050612e-03 
1.2571216e-01 1.1181621e-01 -2.0188857e-03 
1.2444594e-01 1.1045221e-01 -7.4627879e-04 
1.2482192e-01 1.1079469e-01 -3.2650743e-04 
1.2487905e-01 1.1097444e-01 -1.8902443e-03 
1.2402599e-01 1.1007959e-01 -1.3262429e-03 
1.2405666e-01 1.1002633e-01 -2.6476147e-04 
1.2422462e-01 1.1018337e-01 -1.3362298e-04 
1.2410135e-01 1.1020550e-01 -1.9780640e-03 
1.2429938e-01 1.1030807e-01 -7.5953471e-04 
1.2356820e-01 1.0957702e-01 -7.4042135e-04 
1.2468844e-01 1.1075654e-01 -1.5301586e-03 
1.2525608e-01 1.1140290e-01 -2.5480385e-03 
1.2351006e-01 1.0960373e-01 -1.8181215e-03 
1.2367268e-01 1.0964852e-01 -3.1852370e-04 
1.2445614e-01 1.1056477e-01 -2.0405923e-03 
1.2314532e-01 1.0920189e-01 -1.3288637e-03 
1.2317645e-01 1.0914851e-01 -2.5644113e-04 
1.2368522e-01 1.0978454e-01 -1.8991207e-03 
1.2306326e-01 1.0902524e-01 -1.2093256e-04 
1.2268506e-01 1.0869654e-01 -7.3475024e-04 
1.2295158e-01 1.0906038e-01 -1.9911872e-03 
1.2313942e-01 1.0915220e-01 -7.6199428e-04 
1.2225941e-01 1.0831944e-01 -1.3314366e-03 
1.2229073e-01 1.0826525e-01 -2.4778480e-04 
1.2234768e-01 1.0844654e-01 -1.8311483e-03 
1.2396064e-01 1.1011108e-01 -2.5588216e-03 
1.2249953e-01 1.0847937e-01 -3.1058985e-04 
1.2321691e-01 1.0928643e-01 -1.4923504e-03 
1.2321054e-01 1.0932453e-01 -2.0639021e-03 
1.2179636e-01 1.0781086e-01 -7.2848867e-04 
1.2247059e-01 1.0857462e-01 -1.9073833e-03 
1.2187764e-01 1.0784375e-01 -1.0836116e-04 
1.2177715e-01 1.0789136e-01 -2.0038562e-03 
1.2214353e-01 1.0816696e-01 -8.4776315e-04 
1.2136739e-01 1.0743150e-01 -1.3339635e-03 
1.2139946e-01 1.0737771e-01 -2.3982172e-04 
1.2116019e-01 1.0726499e-01 -1.8436821e-03 
1.2266703e-01 1.0882192e-01 -2.5700433e-03 
1.2090200e-01 1.0692082e-01 -7.2303833e-04 
1.2130209e-01 1.0728663e-01 -3.0269541e-04 
1.2194118e-01 1.0806002e-01 -2.0706172e-03 
1.2181812e-01 1.0790084e-01 -1.5973807e-03 
1.2124540e-01 1.0735485e-01 -1.9152942e-03 
1.2047020e-01 1.0653906e-01 -1.3367194e-03 
1.2050222e-01 1.0648472e-01 -2.3148494e-04 
1.2066750e-01 1.0663848e-01 -9.5230818e-05 
1.2057734e-01 1.0669782e-01 -2.0160605e-03 
1.2094150e-01 1.0697492e-01 -9.0706284e-04 
1.2000179e-01 1.0602482e-01 -7.1728649e-04 
1.1994746e-01 1.0605893e-01 -1.8557698e-03 
1.1993870e-01 1.0597108e-01 -8.3416770e-04 
1.2137599e-01 1.0753664e-01 -2.5805766e-03 
1.2007947e-01 1.0606976e-01 -2.9489212e-04 
1.2067956e-01 1.0680263e-01 -2.0575500e-03 
1.1956723e-01 1.0564101e-01 -1.3384366e-03 
1.1959926e-01 1.0558579e-01 -2.2288284e-04 
1.2000866e-01 1.0612471e-01 -1.9245927e-03 
1.2054025e-01 1.0663250e-01 -1.6472531e-03 
1.1943149e-01 1.0540845e-01 -8.2385770e-05 
1.1909615e-01 1.0512357e-01 -7.1077340e-04 
1.1935129e-01 1.0547904e-01 -2.0279882e-03 
1.1968973e-01 1.0573076e-01 -9.1812812e-04 
1.1865813e-01 1.0473739e-01 -1.3408227e-03 
1.1869119e-01 1.0468259e-01 -2.1448909e-04 
1.1870688e-01 1.0482670e-01 -1.8674030e-03 
1.2008703e-01 1.0625406e-01 -2.5906144e-03 
1.1883077e-01 1.0482797e-01 -2.8724552e-04 
1.1941777e-01 1.0554765e-01 -2.0628686e-03 
1.1818439e-01 1.0421752e-01 -7.0494832e-04 
1.1875890e-01 1.0488275e-01 -1.9329231e-03 
1.1928879e-01 1.0539280e-01 -1.7122332e-03 
1.1807436e-01 1.0414086e-01 -1.1222992e-03 
1.1816891e-01 1.0415322e-01 -6.8762718e-05 
1.1809780e-01 1.0423410e-01 -2.0392416e-03 
1.1774348e-01 1.0382930e-01 -1.3429363e-03 
1.1839956e-01 1.0445148e-01 -9.5451210e-04 
1.1767929e-01 1.0367359e-01 -1.6027797e-04 
1.1743920e-01 1.0356813e-01 -1.8790236e-03 
1.1726662e-01 1.0330589e-01 -6.9869607e-04 
1.1880131e-01 1.0497617e-01 -2.5998396e-03 
1.1757050e-01 1.0358118e-01 -3.4719240e-04 
1.1810816e-01 1.0424551e-01 -2.0542666e-03 
1.1752494e-01 1.0365769e-01 -1.9477302e-03 
1.1808322e-01 1.0420448e-01 -1.8383780e-03 
1.1682549e-01 1.0291798e-01 -1.3408873e-03 
1.1685882e-01 1.0286251e-01 -1.9856295e-04 
1.1687883e-01 1.0287150e-01 -5.5327127e-05 
1.1682148e-01 1.0296747e-01 -2.0497143e-03 
1.1634945e-01 1.0239520e-01 -6.9273898e-04 
1.1685777e-01 1.0292194e-01 -9.7338430e-04 
1.1615346e-01 1.0229293e-01 -1.8901052e-03 
1.1751941e-01 1.0370322e-01 -2.6076704e-03 
1.1591072e-01 1.0200952e-01 -1.3359280e-03 
1.1594442e-01 1.0195466e-01 -1.9288252e-04 
1.1626768e-01 1.0228162e-01 -2.6171299e-04 
1.1680315e-01 1.0293408e-01 -1.8471698e-03 
1.1654872e-01 1.0269836e-01 -2.0696847e-03 
1.1602190e-01 1.0216665e-01 -1.9546701e-03 
1.1543816e-01 1.0149084e-01 -6.8707450e-04 
1.1559422e-01 1.0159623e-01 -4.1312363e-05 
1.1554524e-01 1.0170196e-01 -2.0607780e-03 
1.1563741e-01 1.0169368e-01 -7.4102147e-04 
1.1500248e-01 1.0110839e-01 -1.3302411e-03 
1.1499984e-01 1.0101356e-01 -1.3612038e-04 
1.1488833e-01 1.0103867e-01 -1.9004138e-03 
1.1623999e-01 1.0243373e-01 -2.6152187e-03 
1.1499135e-01 1.0101483e-01 -2.4186973e-04 
1.1453313e-01 1.0059314e-01 -6.8087713e-04 
1.1493922e-01 1.0109358e-01 -1.9681607e-03 
1.1538995e-01 1.0150791e-01 -1.5272886e-03 
1.1550708e-01 1.0167453e-01 -2.1881792e-03 
1.1491758e-01 1.0107280e-01 -1.9730921e-03 
1.1432820e-01 1.0034058e-01 -2.8445997e-05 
1.1409968e-01 1.0021327e-01 -1.3243812e-03 
1.1413351e-01 1.0015894e-01 -1.8174847e-04 
1.1428956e-01 1.0045711e-01 -2.0705191e-03 
1.1437046e-01 1.0043539e-01 -7.0859928e-04 
1.1363413e-01 9.9702597e-02 -6.7509449e-04 
1.1364353e-01 9.9805363e-02 -1.9092667e-03 
1.1496355e-01 1.0116865e-01 -2.6236442e-03 
1.1373405e-01 9.9767864e-02 -2.2286874e-04 
1.1335879e-01 9.9386632e-02 -1.1120752e-04 
1.1320393e-01 9.9325664e-02 -1.3179281e-03 
1.1369290e-01 9.9858522e-02 -1.9788942e-03 
1.1423258e-01 1.0041120e-01 -2.1963818e-03 
1.1424994e-01 1.0040311e-01 -1.8636982e-03 
1.1308096e-01 9.9104524e-02 -1.5815469e-05 
1.1372399e-01 9.9837810e-02 -1.2863177e-03 
1.1305382e-01 9.9233501e-02 -2.0792217e-03 
1.1274195e-01 9.8818369e-02 -6.6901045e-04 
1.1346774e-01 9.9635802e-02 -1.9800817e-03 
1.1312247e-01 9.9197127e-02 -6.7745545e-04 
1.1231375e-01 9.8443657e-02 -1.3119020e-03 
1.1241829e-01 9.8592989e-02 -1.9176546e-03 
1.1368798e-01 9.9904016e-02 -2.6297788e-03 
1.1249541e-01 9.8540597e-02 -2.0454427e-04 
1.1220934e-01 9.8247454e-02 -9.0407208e-05 
1.1246663e-01 9.8645143e-02 -1.9889451e-03 
1.1185464e-01 9.7940564e-02 -6.6332164e-04 
1.1295940e-01 9.9149399e-02 -2.2040631e-03 
1.1297628e-01 9.9141084e-02 -1.8714024e-03 
1.1185201e-01 9.7888254e-02 -3.3153901e-06 
1.1183768e-01 9.8030657e-02 -2.0871265e-03 
1.1142945e-01 9.7568840e-02 -1.3048241e-03 
1.1146341e-01 9.7515397e-02 -1.6570394e-04 
1.1223564e-01 9.8357677e-02 -1.1944330e-03 
1.1219897e-01 9.8379776e-02 -1.9845429e-03 
1.1189315e-01 9.7978786e-02 -6.4737868e-04 
1.1136004e-01 9.7452186e-02 -6.7068421e-04 
1.1121277e-01 9.7401395e-02 -1.9248567e-03 
1.1097414e-01 9.7069755e-02 -6.5763295e-04 
1.1241566e-01 9.8643422e-02 -2.6354790e-03 
1.1106484e-01 9.7110532e-02 -1.2664163e-05 
1.1127527e-01 9.7332858e-02 -1.8696318e-04 
1.1126003e-01 9.7452186e-02 -1.9983998e-03 
1.1169048e-01 9.7893938e-02 -2.2106965e-03 
1.1170681e-01 9.7885430e-02 -1.8785631e-03 
1.1055194e-01 9.6701495e-02 -1.2975622e-03 
1.1058495e-01 9.6647419e-02 -1.6084980e-04 
1.1059181e-01 9.6715003e-02 -9.6279156e-04 
1.1064080e-01 9.6690744e-02 7.9162946e-06 
1.1065549e-01 9.6790627e-02 -1.1285994e-03 
1.1064170e-01 9.6848391e-02 -2.0935812e-03 
1.1096963e-01 9.7107254e-02 -1.2033510e-03 
1.1093420e-01 9.7129457e-02 -1.9881472e-03 
1.1068241e-01 9.6780196e-02 -6.1899913e-04 
1.1010023e-01 9.6206129e-02 -6.5125700e-04 
1.1018976e-01 9.6246183e-02 -7.8520898e-06 
1.1002672e-01 9.6229702e-02 -1.9301287e-03 
1.0979428e-01 9.5869772e-02 -1.9796738e-04 
1.1007223e-01 9.6143745e-02 -1.6968446e-04 
1.1114755e-01 9.7389184e-02 -2.6403323e-03 
1.0987552e-01 9.5985658e-02 -6.6764338e-04 
1.0968064e-01 9.5840238e-02 -1.2901725e-03 
1.1007353e-01 9.6280634e-02 -2.0076938e-03 
1.1042564e-01 9.6644543e-02 -2.2166374e-03 
1.1044148e-01 9.6635841e-02 -1.8850667e-03 
1.0923257e-01 9.5349744e-02 -6.4588600e-04 
1.0944799e-01 9.5512994e-02 1.9263347e-05 
1.0946344e-01 9.5685460e-02 -2.0991445e-03 
1.0948916e-01 9.5600262e-02 -5.8984722e-04 
1.0970749e-01 9.5861338e-02 -1.2129158e-03 
1.0967325e-01 9.5884405e-02 -1.9919879e-03 
1.0881588e-01 9.4986543e-02 -1.2831399e-03 
1.0896381e-01 9.5089853e-02 -7.1057270e-04 
1.0884848e-01 9.4933808e-02 -1.5167751e-04 
1.0885889e-01 9.5077433e-02 -1.9356766e-03 
1.0888745e-01 9.4973527e-02 -1.5320479e-04 
1.0988393e-01 9.6140884e-02 -2.6441151e-03 
1.0890491e-01 9.5127493e-02 -2.0153059e-03 
1.0837091e-01 9.4499737e-02 -6.3970103e-04 
1.0845900e-01 9.4538398e-02 3.6460078e-06 
1.0830184e-01 9.4471678e-02 -1.1821744e-03 
1.0830505e-01 9.4542533e-02 -2.1038649e-03 
1.0827221e-01 9.4352856e-02 3.0161755e-05 
1.0916528e-01 9.5400341e-02 -2.2216367e-03 
1.0918068e-01 9.5391355e-02 -1.8905590e-03 
1.0812622e-01 9.4263203e-02 -7.0170866e-04 
1.0804406e-01 9.4207883e-02 -1.0433565e-03 
1.0795639e-01 9.4138905e-02 -1.2755906e-03 
1.0798925e-01 9.4086990e-02 -1.4669784e-04 
1.0831289e-01 9.4438426e-02 -5.6262250e-04 
1.0844895e-01 9.4620846e-02 -1.2206022e-03 
1.0841578e-01 9.4644092e-02 -1.9947237e-03 
1.0770995e-01 9.3944766e-02 -1.9397859e-03 
1.0751494e-01 9.3656540e-02 -6.3399272e-04 
1.0760251e-01 9.3694776e-02 8.7678654e-06 
1.0772039e-01 9.3823090e-02 -1.3778453e-04 
1.0775430e-01 9.3993433e-02 -2.0234277e-03 
1.0862427e-01 9.4897494e-02 -2.6470432e-03 
1.0710296e-01 9.3297973e-02 -1.2679988e-03 
1.0713626e-01 9.3246885e-02 -1.4187934e-04 
1.0711496e-01 9.3287840e-02 -9.7878010e-04 
1.0716427e-01 9.3418844e-02 -2.1077516e-03 
1.0711317e-01 9.3211047e-02 4.1679716e-05 
1.0790818e-01 9.4160587e-02 -2.2258423e-03 
1.0792322e-01 9.4151430e-02 -1.8953782e-03 
1.0666484e-01 9.2819519e-02 -6.2901474e-04 