# vtk DataFile Version 4.0
vtk output
ASCII
DATASET UNSTRUCTURED_GRID
POINTS 6166 float
-4.3633327e-01 9.6409470e-01 4.4200001e+01 
-4.3633261e-01 9.6409082e-01 4.4079685e+01 
-3.2145375e-01 9.1276109e-01 4.4200001e+01 
-3.8566181e-01 8.4097892e-01 4.4200001e+01 
-3.3069235e-01 9.1895354e-01 4.4019413e+01 
-3.8473952e-01 8.3919770e-01 4.4024357e+01 
-4.3633196e-01 9.6408689e-01 4.3958702e+01 
-2.1293370e-01 8.4677851e-01 4.4200001e+01 
-2.9042658e-01 7.3813015e-01 4.4200001e+01 
-2.1019450e-01 8.4669626e-01 4.4077393e+01 
-2.8909999e-01 7.3605996e-01 4.4073399e+01 
-3.2963324e-01 9.1929907e-01 4.3898094e+01 
-3.8679782e-01 8.4179753e-01 4.3889645e+01 
-2.0740938e-01 8.4661204e-01 4.3952713e+01 
-4.3633130e-01 9.6408290e-01 4.3837040e+01 
-1.1677200e-01 7.7521002e-01 4.4200001e+01 
-2.8775173e-01 7.3395580e-01 4.3944717e+01 
-1.9365783e-01 6.6203654e-01 4.4200001e+01 
-1.1309985e-01 7.7540898e-01 4.4012005e+01 
-1.9181472e-01 6.5888047e-01 4.4006447e+01 
-3.2856464e-01 9.1964108e-01 4.3776085e+01 
-3.8823184e-01 8.4352189e-01 4.3765770e+01 
-2.0457739e-01 8.4652513e-01 4.3825886e+01 
-2.8638119e-01 7.3181647e-01 4.3813885e+01 
-4.3633065e-01 9.6407896e-01 4.3714680e+01 
-1.0911675e-01 7.7426714e-01 4.3886200e+01 
-2.1001574e-02 6.8269837e-01 4.4200001e+01 
-1.8902887e-01 6.5566909e-01 4.3876659e+01 
-7.8887597e-02 5.9015810e-01 4.4200001e+01 
-3.2748649e-01 9.1997939e-01 4.3653378e+01 
-3.9889076e-01 8.5876143e-01 4.3651733e+01 
-2.0169757e-01 8.4643483e-01 4.3696846e+01 
-7.2496021e-03 6.7325598e-01 4.3947758e+01 
-1.0504345e-01 7.7307969e-01 4.3758209e+01 
-2.8498772e-01 7.2964084e-01 4.3680840e+01 
-6.3224643e-02 5.7783771e-01 4.3940754e+01 
3.5808440e-02 6.2679136e-01 4.4056572e+01 
-1.8616955e-01 6.5238589e-01 4.3744686e+01 
-4.3632996e-01 9.6407503e-01 4.3591618e+01 
-9.8678423e-03 5.4892725e-01 4.4055367e+01 
-1.8652271e-02 6.8798620e-01 4.3834026e+01 
-7.9845116e-02 5.8636194e-01 4.3823372e+01 
8.7777540e-02 5.7885915e-01 4.4200001e+01 
5.3622175e-02 5.1732427e-01 4.4200001e+01 
-3.2639861e-01 9.2031354e-01 4.3529953e+01 
-3.9894739e-01 8.5844576e-01 4.3528313e+01 
-1.9876897e-01 8.4634024e-01 4.3565521e+01 
-1.0087753e-01 7.7184403e-01 4.3627972e+01 
-2.8357074e-01 7.2742778e-01 4.3545506e+01 
-1.8323407e-01 6.4902818e-01 4.3610458e+01 
-4.3632931e-01 9.6407109e-01 4.3467831e+01 
3.1033519e-03 6.6751039e-01 4.3691772e+01 
-5.3600248e-02 5.6906003e-01 4.3676846e+01 
1.2436585e-01 5.5082864e-01 4.3886215e+01 
1.7079005e-01 5.1095647e-01 4.4054855e+01 
1.4951277e-01 4.6697062e-01 4.4053665e+01 
1.0028158e-01 4.8915190e-01 4.3877911e+01 
-4.0513036e-01 8.6722642e-01 4.3405304e+01 
-3.2530096e-01 9.2064321e-01 4.3405800e+01 
-9.6616447e-02 7.7055699e-01 4.3495411e+01 
-8.4563000e-03 6.8258613e-01 4.3574005e+01 
-1.9579062e-01 8.4624058e-01 4.3431831e+01 
2.1753120e-01 4.7335833e-01 4.4200001e+01 
2.0360756e-01 4.4289169e-01 4.4200001e+01 
-1.8021962e-01 6.4559317e-01 4.3473904e+01 
-7.0636064e-02 5.7773441e-01 4.3555408e+01 
-2.8212959e-01 7.2517604e-01 4.3407806e+01 
-4.3632865e-01 9.6406716e-01 4.3343307e+01 
1.3810426e-01 5.4143524e-01 4.3628246e+01 
-3.2419339e-01 9.2096806e-01 4.3280907e+01 
-3.9903235e-01 8.5775709e-01 4.3279266e+01 
-9.2257597e-02 7.6921552e-01 4.3360443e+01 
1.1508528e-01 4.7804743e-01 4.3612068e+01 
-1.9276154e-01 8.4613472e-01 4.3295704e+01 
1.4013666e-02 6.6131532e-01 4.3426643e+01 
-1.7712323e-01 6.4207786e-01 4.3334946e+01 
-2.8066361e-01 7.2288430e-01 4.3267666e+01 
-4.3382257e-02 5.5983055e-01 4.3403778e+01 
-4.3632799e-01 9.6406323e-01 4.3218033e+01 
3.7877345e-01 3.8273901e-01 4.4200001e+01 
3.9076596e-01 3.7443376e-01 4.3993755e+01 
-3.2307580e-01 9.2128778e-01 4.3155251e+01 
-3.9906058e-01 8.5738426e-01 4.3153610e+01 
-8.7798268e-02 7.6781619e-01 4.3222996e+01 
1.9689407e-02 6.5803534e-01 4.3290459e+01 
-6.0862999e-02 5.6866169e-01 4.3278019e+01 
-1.8968078e-01 8.4602165e-01 4.3157055e+01 
-1.7394182e-01 6.3847917e-01 4.3193501e+01 
-4.3632734e-01 9.6405929e-01 4.3091995e+01 
4.0275589e-01 3.6612594e-01 4.3787510e+01 
1.2304078e-01 5.5709994e-01 4.3330139e+01 
-2.7917209e-01 7.2055119e-01 4.3125000e+01 
2.5336364e-01 4.4907436e-01 4.3468094e+01 
2.3670304e-01 4.1684708e-01 4.3469433e+01 
1.3086085e-01 4.6634668e-01 4.3336948e+01 
-3.8351217e-01 8.3473074e-01 4.3036392e+01 
-3.2194808e-01 9.2160189e-01 4.3028820e+01 
2.5518833e-02 6.5462554e-01 4.3151749e+01 
-8.3235659e-02 7.6635528e-01 4.3082981e+01 
4.1474071e-01 3.5781288e-01 4.3581264e+01 
-1.8654740e-01 8.4590012e-01 4.3015797e+01 
-3.2522827e-02 5.5011308e-01 4.3120937e+01 
-1.7067213e-01 6.3479382e-01 4.3049488e+01 
-4.3632668e-01 9.6405542e-01 4.2965172e+01 
-2.7765438e-01 7.1817529e-01 4.2979721e+01 
2.6620242e-01 4.4011977e-01 4.3261948e+01 
1.3584816e-02 6.7044950e-01 4.3025066e+01 
-3.2081014e-01 9.2191011e-01 4.2901604e+01 
-3.8160574e-01 8.3169121e-01 4.2902863e+01 
-7.8566879e-02 7.6482886e-01 4.2940315e+01 
-5.0480481e-02 5.5910730e-01 4.2990566e+01 
4.2671782e-01 3.4949207e-01 4.3375019e+01 
1.6821145e-01 5.2049083e-01 4.3083881e+01 
-1.8336046e-01 8.4576881e-01 4.2871841e+01 
-4.3632606e-01 9.6405160e-01 4.2837555e+01 
-1.6731077e-01 6.3101834e-01 4.2902817e+01 
1.4768846e-01 4.5400122e-01 4.3051926e+01 
-2.7610970e-01 7.1575516e-01 4.2831745e+01 
-3.1966189e-01 9.2221189e-01 4.2773579e+01 
-3.8560396e-01 8.3684862e-01 4.2767078e+01 
3.7660085e-02 6.4738947e-01 4.2866421e+01 
-7.3788933e-02 7.6323271e-01 4.2794899e+01 
4.3868470e-01 3.4116083e-01 4.3168777e+01 
-4.3632543e-01 9.6404779e-01 4.2709122e+01 
-2.0968946e-02 5.3986710e-01 4.2827656e+01 
-1.8011902e-01 8.4562629e-01 4.2725094e+01 
-1.6385415e-01 6.2714905e-01 4.2753403e+01 
-2.7453732e-01 7.1328926e-01 4.2680973e+01 
-3.1850323e-01 9.2250693e-01 4.2644733e+01 
-3.9907700e-01 8.5570478e-01 4.2643101e+01 
2.5504474e-02 6.6361672e-01 4.2734810e+01 
1.8471870e-01 5.0880390e-01 4.2796177e+01 
-6.8898737e-02 7.6156229e-01 4.2646645e+01 
-3.9438177e-02 5.4903054e-01 4.2692345e+01 
-4.3632481e-01 9.6404403e-01 4.2579861e+01 
4.5063871e-01 3.3281663e-01 4.2962532e+01 
1.6565691e-01 4.4095638e-01 4.2756321e+01 
-1.7682223e-01 8.4547096e-01 4.2575459e+01 
-1.6029853e-01 6.2318206e-01 4.2601143e+01 
-4.0415615e-01 8.6278629e-01 4.2516582e+01 
-3.1733403e-01 9.2279470e-01 4.2515053e+01 
-2.7293649e-01 7.1077597e-01 4.2527313e+01 
5.0482783e-02 6.3954860e-01 4.2569923e+01 
-4.3632418e-01 9.6404034e-01 4.2449757e+01 
-6.3893095e-02 7.5981271e-01 4.2495445e+01 
-8.6617703e-03 5.2904755e-01 4.2523201e+01 
-1.7346917e-01 8.4530097e-01 4.2422829e+01 
-1.5663996e-01 6.1911333e-01 4.2445942e+01 
3.0435190e-01 4.1341871e-01 4.2643494e+01 
4.6257737e-01 3.2445681e-01 4.2756287e+01 
-3.1615424e-01 9.2307472e-01 4.2384518e+01 
-3.9902648e-01 8.5475212e-01 4.2382885e+01 
-2.7130640e-01 7.0821363e-01 4.2370659e+01 
3.8079392e-02 6.5619886e-01 4.2433029e+01 
2.0230262e-01 4.9620378e-01 4.2497147e+01 
-4.3632355e-01 9.6403670e-01 4.2318787e+01 
-5.8768708e-02 7.5797862e-01 4.2341198e+01 
-2.7680276e-02 5.3838593e-01 4.2382599e+01 
1.8486446e-01 4.2715022e-01 4.2449394e+01 
-3.8436696e-01 8.3356136e-01 4.2264896e+01 
8.9545198e-02 5.3233254e-01 4.2382050e+01 
-3.3225983e-01 9.3122375e-01 4.2255634e+01 
-1.7005907e-01 8.4511453e-01 4.2267101e+01 
-1.5287429e-01 6.1493850e-01 4.2287693e+01 
4.7449806e-01 3.1607881e-01 4.2550037e+01 
-2.6964626e-01 7.0560038e-01 4.2210907e+01 
-4.3632296e-01 9.6403313e-01 4.2186939e+01 
6.4036883e-02 6.3103610e-01 4.2261456e+01 
-5.3522192e-02 7.5605446e-01 4.2183796e+01 
-3.7873057e-01 8.2541841e-01 4.2124020e+01 
-3.1376252e-01 9.2360973e-01 4.2120819e+01 
4.4639236e-03 5.1760370e-01 4.2206776e+01 
-1.6659111e-01 8.4490943e-01 4.2108162e+01 
-1.4899719e-01 6.1065292e-01 4.2126286e+01 
-4.3632239e-01 9.6402961e-01 4.2054195e+01 
4.8639825e-01 3.0768004e-01 4.2343792e+01 
-2.6795524e-01 7.0293444e-01 4.2047943e+01 
2.4746621e-01 4.6040925e-01 4.2191032e+01 
7.1105182e-02 6.2650448e-01 4.2102463e+01 
-3.1255043e-01 9.2386365e-01 4.1987617e+01 
-4.8150036e-02 7.5403398e-01 4.2023121e+01 
-1.5144684e-02 5.2712250e-01 4.2060505e+01 
-3.7995064e-01 8.2661813e-01 4.1980038e+01 
2.0541981e-01 4.1251117e-01 4.2130333e+01 
-1.6306458e-01 8.4468329e-01 4.1945896e+01 
-4.3632182e-01 9.6402621e-01 4.1920536e+01 
-1.4500406e-01 6.0625184e-01 4.1961609e+01 
1.3375351e-01 5.6370503e-01 4.1969833e+01 
-2.6623246e-01 7.0021385e-01 4.1881653e+01 
-3.1132740e-01 9.2410773e-01 4.1853493e+01 
-3.9880505e-01 8.5261923e-01 4.1851868e+01 
4.9827534e-01 2.9925787e-01 4.2137547e+01 
3.4194937e-01 3.8685825e-01 4.2025021e+01 
-4.2648647e-02 7.5191063e-01 4.1859051e+01 
-2.5401810e-01 7.9503769e-01 4.1808533e+01 
1.8480448e-02 5.0547802e-01 4.1877510e+01 
-4.3632126e-01 9.6402287e-01 4.1785946e+01 
-1.5947884e-01 8.4443361e-01 4.1780174e+01 
-1.4089009e-01 6.0172999e-01 4.1793541e+01 
-3.1009343e-01 9.2434150e-01 4.1718426e+01 
-4.0306881e-01 8.5845691e-01 4.1716179e+01 
8.5861288e-02 6.1683756e-01 4.1774368e+01 
-2.6447710e-01 6.9743657e-01 4.1711910e+01 
3.0427080e-01 4.1638452e-01 4.1839512e+01 
2.6751360e-01 3.7833902e-01 4.1830902e+01 
5.1012677e-01 2.9080975e-01 4.1931297e+01 
-3.7014309e-02 7.4967718e-01 4.1691463e+01 
-4.3632072e-01 9.6401966e-01 4.1650398e+01 
2.5847588e-02 4.9913955e-01 4.1707767e+01 
-1.5583332e-01 8.4415752e-01 4.1610870e+01 
-3.8322043e-01 8.2981020e-01 4.1595791e+01 
-3.0884841e-01 9.2456430e-01 4.1582397e+01 
-1.3665022e-01 5.9708190e-01 4.1621960e+01 
9.3565010e-02 6.1167872e-01 4.1605015e+01 
-2.6268822e-01 6.9460052e-01 4.1538593e+01 
-4.3632022e-01 9.6401656e-01 4.1513885e+01 
-3.1243213e-02 7.4732590e-01 4.1520226e+01 
2.7603787e-01 3.7115356e-01 4.1624012e+01 
2.8505871e-01 4.3281260e-01 4.1611507e+01 
5.2195001e-01 2.8233302e-01 4.1725052e+01 
3.3468332e-02 4.9260557e-01 4.1534447e+01 
-3.9853087e-01 8.5081697e-01 4.1443768e+01 
-3.2560509e-01 9.3245691e-01 4.1443577e+01 
-1.5212752e-01 8.4385180e-01 4.1437847e+01 
-1.3227913e-01 5.9230179e-01 4.1446728e+01 
-4.3631971e-01 9.6401358e-01 4.1376381e+01 
[...]
POINT_DATA 6166
FIELD FieldData 5
DISPLACEMENT 3 6166  float
1.7081518e+00 1.5597341e+00 -1.0180801e-01 
1.6978981e+00 1.5494310e+00 -1.0092639e-01 
1.7078434e+00 1.5593275e+00 -1.0718066e-01 
1.7082305e+00 1.5599252e+00 -9.5560737e-02 
1.6924736e+00 1.5438883e+00 -1.0560279e-01 
1.6932621e+00 1.5448860e+00 -9.4199866e-02 
1.6875875e+00 1.5390707e+00 -1.0003982e-01 
1.7075894e+00 1.5590078e+00 -1.1075579e-01 
1.7081037e+00 1.5598104e+00 -9.4843671e-02 
1.6971308e+00 1.5484947e+00 -1.1008371e-01 
1.6973138e+00 1.5489697e+00 -9.3851641e-02 
1.6821297e+00 1.5334924e+00 -1.0483374e-01 
1.6817837e+00 1.5333512e+00 -9.3260974e-02 
1.6864949e+00 1.5378035e+00 -1.0940009e-01 
1.6772190e+00 1.5286523e+00 -9.9148214e-02 
1.7073922e+00 1.5587728e+00 -1.1280025e-01 
1.6863468e+00 1.5379509e+00 -9.2843398e-02 
1.7079139e+00 1.5595889e+00 -9.6551679e-02 
1.6913571e+00 1.5426544e+00 -1.1175270e-01 
1.6914189e+00 1.5430164e+00 -9.5020123e-02 
1.6717274e+00 1.5230379e+00 -1.0406003e-01 
1.6712283e+00 1.5227445e+00 -9.2379585e-02 
1.6756765e+00 1.5269288e+00 -1.0870443e-01 
1.6751968e+00 1.5267484e+00 -9.1818526e-02 
1.6667916e+00 1.5181748e+00 -9.8251529e-02 
1.6806234e+00 1.5318645e+00 -1.1107200e-01 
1.7072412e+00 1.5586170e+00 -1.1301517e-01 
1.6803545e+00 1.5318995e+00 -9.4031222e-02 
1.7076496e+00 1.5592586e+00 -1.0015286e-01 
1.6612657e+00 1.5125238e+00 -1.0328154e-01 
1.6615165e+00 1.5129789e+00 -9.1944538e-02 
1.6646694e+00 1.5158646e+00 -1.0799617e-01 
1.6857146e+00 1.5369798e+00 -1.1152777e-01 
1.6697040e+00 1.5208882e+00 -1.1037902e-01 
1.6638583e+00 1.5153567e+00 -9.0776637e-02 
1.6855252e+00 1.5370225e+00 -9.8530173e-02 
1.6949306e+00 1.5462461e+00 -1.1200368e-01 
1.6691042e+00 1.5205958e+00 -9.3026802e-02 
1.6563044e+00 1.5076371e+00 -9.7349785e-02 
1.6951600e+00 1.5466666e+00 -1.0143014e-01 
1.6760324e+00 1.5272458e+00 -1.1098768e-01 
1.6755637e+00 1.5270253e+00 -9.6987434e-02 
1.7070670e+00 1.5584354e+00 -1.1336546e-01 
1.7073227e+00 1.5588396e+00 -1.0518149e-01 
1.6507436e+00 1.5019494e+00 -1.0249837e-01 
1.6509999e+00 1.5024126e+00 -9.1009207e-02 
1.6534681e+00 1.5046055e+00 -1.0727483e-01 
1.6585929e+00 1.5097194e+00 -1.0967312e-01 
1.6523254e+00 1.5037696e+00 -8.9717060e-02 
1.6576622e+00 1.5090997e+00 -9.2006110e-02 
1.6457562e+00 1.4970391e+00 -9.6442521e-02 
1.6638740e+00 1.5150272e+00 -1.1004052e-01 
1.6630180e+00 1.5144061e+00 -9.6663848e-02 
1.6802517e+00 1.5314777e+00 -1.1177602e-01 
1.6945399e+00 1.5458252e+00 -1.1354199e-01 
1.6946099e+00 1.5459961e+00 -1.0795023e-01 
1.6797634e+00 1.5311191e+00 -1.0437622e-01 
1.6405227e+00 1.4918815e+00 -9.0335913e-02 
1.6401601e+00 1.4913136e+00 -1.0170984e-01 
1.6472844e+00 1.4983523e+00 -1.0895374e-01 
1.6538485e+00 1.5049480e+00 -1.0948695e-01 
1.6420664e+00 1.4931450e+00 -1.0653982e-01 
1.7068199e+00 1.5581511e+00 -1.1535777e-01 
1.7069355e+00 1.5583357e+00 -1.1155991e-01 
1.6460227e+00 1.4974053e+00 -9.0969324e-02 
1.6527134e+00 1.5040650e+00 -9.5069669e-02 
1.6405922e+00 1.4919819e+00 -8.8640004e-02 
1.6351467e+00 1.4863791e+00 -9.5530458e-02 
1.6582375e+00 1.5093510e+00 -1.1024956e-01 
1.6295149e+00 1.4806163e+00 -1.0091709e-01 
1.6297826e+00 1.4810959e+00 -8.9121237e-02 
1.6357722e+00 1.4867809e+00 -1.0822020e-01 
1.6570776e+00 1.5083188e+00 -1.0273679e-01 
1.6304579e+00 1.4814776e+00 -1.0579040e-01 
1.6412556e+00 1.4922934e+00 -1.0849496e-01 
1.6341795e+00 1.4855067e+00 -8.9915864e-02 
1.6286523e+00 1.4799867e+00 -8.7543875e-02 
1.6397319e+00 1.4910078e+00 -9.4744056e-02 
1.6244745e+00 1.4756569e+00 -9.4612762e-02 
1.7064264e+00 1.5576484e+00 -1.2130566e-01 
1.6888235e+00 1.5399544e+00 -1.2010285e-01 
1.6188064e+00 1.4698552e+00 -1.0011898e-01 
1.6190803e+00 1.4703436e+00 -8.8168435e-02 
1.6240499e+00 1.4749992e+00 -1.0747191e-01 
1.6296396e+00 1.4806188e+00 -1.0769843e-01 
1.6290632e+00 1.4803020e+00 -9.3095571e-02 
1.6186361e+00 1.4695967e+00 -1.0502576e-01 
1.6221266e+00 1.4733979e+00 -8.8845327e-02 
1.6137384e+00 1.4648712e+00 -9.3689762e-02 
1.6712205e+00 1.5222610e+00 -1.1889949e-01 
1.6328580e+00 1.4838494e+00 -1.0812671e-01 
1.6164997e+00 1.4677787e+00 -8.6429268e-02 
1.6443677e+00 1.4953808e+00 -1.1096214e-01 
1.6446110e+00 1.4957004e+00 -1.0679127e-01 
1.6336024e+00 1.4847258e+00 -1.0106160e-01 
1.6090884e+00 1.4603169e+00 -8.6693406e-02 
1.6080339e+00 1.4590313e+00 -9.9314921e-02 
1.6178104e+00 1.4687312e+00 -1.0688584e-01 
1.6121111e+00 1.4630007e+00 -1.0670842e-01 
1.6536192e+00 1.5045698e+00 -1.1769507e-01 
1.6065948e+00 1.4574957e+00 -1.0424680e-01 
1.6156186e+00 1.4667805e+00 -9.2768893e-02 
1.6098566e+00 1.4610722e+00 -8.7756336e-02 
1.6029384e+00 1.4540217e+00 -9.2761122e-02 
1.6041272e+00 1.4553504e+00 -8.5295238e-02 
1.6267772e+00 1.4777009e+00 -1.0977524e-01 
1.6070316e+00 1.4578967e+00 -1.0629926e-01 
1.5971963e+00 1.4481434e+00 -9.8506182e-02 
1.5977174e+00 1.4488961e+00 -8.5619882e-02 
1.5999485e+00 1.4507784e+00 -1.0592876e-01 
1.6045629e+00 1.4556875e+00 -9.1061853e-02 
1.6360215e+00 1.4868820e+00 -1.1648800e-01 
1.6117953e+00 1.4626760e+00 -1.0702767e-01 
1.5943265e+00 1.4451677e+00 -1.0345115e-01 
1.5920720e+00 1.4431069e+00 -9.1826566e-02 
1.5973637e+00 1.4485233e+00 -8.6650498e-02 
1.6092896e+00 1.4602937e+00 -9.9352360e-02 
1.5915276e+00 1.4426961e+00 -8.4141560e-02 
1.5862924e+00 1.4371895e+00 -9.7691558e-02 
1.5861619e+00 1.4372866e+00 -8.4732018e-02 
1.5934851e+00 1.4442885e+00 -1.0520842e-01 
1.5875556e+00 1.4383255e+00 -1.0513232e-01 
1.6184244e+00 1.4691963e+00 -1.1528024e-01 
1.5811396e+00 1.4321274e+00 -9.0887308e-02 
1.5906254e+00 1.4416728e+00 -9.0734646e-02 
1.5818242e+00 1.4326063e+00 -1.0263832e-01 
1.5846395e+00 1.4357442e+00 -8.5524946e-02 
1.5786953e+00 1.4298089e+00 -8.2968548e-02 
1.5753229e+00 1.4261705e+00 -9.6870981e-02 
1.5756205e+00 1.4266914e+00 -8.4298730e-02 
1.5822932e+00 1.4330403e+00 -1.0460103e-01 
1.5872639e+00 1.4380270e+00 -1.0532518e-01 
1.5749251e+00 1.4256356e+00 -1.0431746e-01 
1.5791574e+00 1.4301686e+00 -8.8965341e-02 
1.5701418e+00 1.4210823e+00 -8.9943670e-02 
1.6008352e+00 1.4515221e+00 -1.1407147e-01 
1.5840850e+00 1.4349680e+00 -9.7605459e-02 
1.5690814e+00 1.4198054e+00 -1.0180786e-01 
1.5716797e+00 1.4227288e+00 -8.4382854e-02 
1.5648601e+00 1.4158834e+00 -8.3553031e-02 
1.5642869e+00 1.4150877e+00 -9.6046790e-02 
1.5656232e+00 1.4166819e+00 -8.1773683e-02 
1.5682255e+00 1.4189117e+00 -1.0345542e-01 
1.5590762e+00 1.4099710e+00 -8.8993371e-02 
1.5620514e+00 1.4127038e+00 -1.0348444e-01 
1.5646995e+00 1.4156340e+00 -8.8641748e-02 
1.5560901e+00 1.4067565e+00 -1.0095914e-01 
1.5584775e+00 1.4094718e+00 -8.3219171e-02 
1.5740420e+00 1.4247121e+00 -1.0620608e-01 
1.5832548e+00 1.4338599e+00 -1.1286124e-01 
1.5531822e+00 1.4039344e+00 -9.5216721e-02 
1.5534918e+00 1.4044716e+00 -8.2331136e-02 
1.5523030e+00 1.4033086e+00 -8.0557235e-02 
1.5565952e+00 1.4072278e+00 -1.0282686e-01 
1.5617875e+00 1.4124355e+00 -1.0355532e-01 
1.5479423e+00 1.3987920e+00 -8.8038936e-02 
1.5489229e+00 1.3995180e+00 -1.0263359e-01 
1.5527943e+00 1.4036950e+00 -8.6806081e-02 
1.5579358e+00 1.4087020e+00 -9.5821619e-02 
1.5434561e+00 1.3944054e+00 -8.0910087e-02 
1.5523354e+00 1.4030629e+00 -9.6233115e-02 
1.5422705e+00 1.3929914e+00 -9.3603835e-02 
1.5428424e+00 1.3934516e+00 -1.0009154e-01 
1.5450197e+00 1.3959618e+00 -8.2038105e-02 
1.5656821e+00 1.4162052e+00 -1.1164659e-01 
1.5387266e+00 1.3896812e+00 -7.9321228e-02 
1.5367409e+00 1.3875480e+00 -8.7079078e-02 
1.5419697e+00 1.3925433e+00 -1.0162354e-01 
1.5355347e+00 1.3860724e+00 -1.0176186e-01 
1.5314857e+00 1.3823948e+00 -7.9672411e-02 
1.5307698e+00 1.3814306e+00 -9.3537055e-02 
1.5377777e+00 1.3886032e+00 -8.6485162e-02 
1.5293308e+00 1.3798841e+00 -9.9205993e-02 
1.5313015e+00 1.3821930e+00 -8.0834374e-02 
1.5254700e+00 1.3762348e+00 -8.6112611e-02 
1.5481193e+00 1.3985672e+00 -1.1043070e-01 
1.5248865e+00 1.3757912e+00 -7.8062266e-02 
1.5356803e+00 1.3862122e+00 -1.0209622e-01 
1.5284508e+00 1.3789678e+00 -1.0067641e-01 
1.5194579e+00 1.3700778e+00 -9.2689715e-02 
1.5218773e+00 1.3723596e+00 -1.0086793e-01 
1.5254064e+00 1.3762015e+00 -8.4579974e-02 
1.5192636e+00 1.3701295e+00 -7.8630418e-02 
1.5307773e+00 1.3814284e+00 -9.3998015e-02 
1.5155467e+00 1.3660456e+00 -9.8298013e-02 
1.5141259e+00 1.3648523e+00 -8.5139655e-02 
1.5173168e+00 1.3681599e+00 -7.9614021e-02 
1.5170974e+00 1.3675760e+00 -9.9659413e-02 
1.5107759e+00 1.3616345e+00 -7.6782793e-02 
1.5080752e+00 1.3586556e+00 -9.1834478e-02 
1.5084053e+00 1.3592231e+00 -7.8328080e-02 
1.5305759e+00 1.3809541e+00 -1.0921345e-01 
1.5213994e+00 1.3718472e+00 -1.0261415e-01 
1.5079449e+00 1.3583742e+00 -9.9951699e-02 
1.5043316e+00 1.3550075e+00 -8.5365988e-02 
1.5098007e+00 1.3605248e+00 -8.4265336e-02 
1.5027143e+00 1.3534056e+00 -8.4162422e-02 
1.5014848e+00 1.3519344e+00 -9.7363710e-02 
1.5030596e+00 1.3538562e+00 -7.8377172e-02 
1.4966234e+00 1.3471671e+00 -9.0974361e-02 
1.4969097e+00 1.3476918e+00 -7.7491321e-02 
1.5005851e+00 1.3509998e+00 -9.8704569e-02 
1.4963877e+00 1.3472048e+00 -7.5483397e-02 
1.5057323e+00 1.3561380e+00 -1.0059392e-01 
1.5052131e+00 1.3557328e+00 -9.4178990e-02 
1.5130402e+00 1.3633474e+00 -1.0798908e-01 
1.4937321e+00 1.3441117e+00 -9.9011600e-02 
1.4912326e+00 1.3418916e+00 -8.3184190e-02 
1.4954009e+00 1.3460799e+00 -8.3135888e-02 
1.4871377e+00 1.3375399e+00 -9.6408956e-02 
1.4867048e+00 1.3374721e+00 -7.5874850e-02 
1.4851062e+00 1.3356166e+00 -9.0106286e-02 
1.4885185e+00 1.3392764e+00 -7.7113912e-02 
1.4862297e+00 1.3365976e+00 -9.7688049e-02 
1.4817182e+00 1.3324963e+00 -7.4160121e-02 
1.4796880e+00 1.3303133e+00 -8.2200877e-02 
1.4792253e+00 1.3295614e+00 -9.8047651e-02 
1.4876707e+00 1.3381363e+00 -9.2796691e-02 
1.4864529e+00 1.3368044e+00 -9.8711178e-02 
1.4955298e+00 1.3457758e+00 -1.0676267e-01 
1.4807147e+00 1.3313535e+00 -8.1987485e-02 
1.4738655e+00 1.3245872e+00 -7.5279206e-02 
1.4734159e+00 1.3239062e+00 -8.8356532e-02 
1.4724927e+00 1.3228556e+00 -9.5434040e-02 
1.4736906e+00 1.3244131e+00 -7.5835317e-02 
1.4680676e+00 1.3186655e+00 -8.1208587e-02 
1.4736760e+00 1.3240132e+00 -9.6601494e-02 
1.4667535e+00 1.3174988e+00 -7.2816856e-02 
1.4644208e+00 1.3147175e+00 -9.7060129e-02 
1.4618595e+00 1.3123105e+00 -8.8360690e-02 
1.4622053e+00 1.3129061e+00 -7.4251361e-02 
1.4657358e+00 1.3163397e+00 -8.0824643e-02 
1.4709660e+00 1.3213785e+00 -9.2045806e-02 
1.4780471e+00 1.3282397e+00 -1.0553593e-01 
1.4575472e+00 1.3078727e+00 -9.4434477e-02 
1.4680911e+00 1.3183856e+00 -9.7878076e-02 
1.4563746e+00 1.3069526e+00 -8.0207221e-02 
1.4585648e+00 1.3092574e+00 -7.4535981e-02 
1.4582348e+00 1.3085376e+00 -9.5462590e-02 
1.4501250e+00 1.3005556e+00 -8.7476231e-02 
1.4504756e+00 1.3011624e+00 -7.3218718e-02 
1.4514875e+00 1.3022070e+00 -7.1449034e-02 
1.4493067e+00 1.2995702e+00 -9.6048333e-02 
1.4504547e+00 1.3010308e+00 -7.9645634e-02 
1.4446096e+00 1.2951734e+00 -7.9206400e-02 
1.4542716e+00 1.3046609e+00 -9.0211384e-02 
1.4605950e+00 1.3107421e+00 -1.0430488e-01 
1.4422860e+00 1.2925823e+00 -9.3410298e-02 
1.4431304e+00 1.2938015e+00 -7.3215306e-02 
1.4511427e+00 1.3013990e+00 -9.6823171e-02 
1.4383199e+00 1.2887321e+00 -8.6585380e-02 
1.4386770e+00 1.2893486e+00 -7.2182514e-02 
1.4421660e+00 1.2924401e+00 -9.4311029e-02 
1.4359078e+00 1.2866117e+00 -7.0057787e-02 
1.4327743e+00 1.2833227e+00 -7.8204088e-02 
1.4338714e+00 1.2841109e+00 -9.5010236e-02 
1.4348599e+00 1.2854152e+00 -7.8449994e-02 
1.4264463e+00 1.2768451e+00 -8.5690893e-02 
1.4268055e+00 1.2774633e+00 -7.1137846e-02 
1.4266983e+00 1.2769761e+00 -9.2362948e-02 
1.4431759e+00 1.2932866e+00 -1.0307004e-01 
1.4273777e+00 1.2780366e+00 -7.1873464e-02 
1.4345645e+00 1.2849348e+00 -8.8152409e-02 
1.4343306e+00 1.2845553e+00 -9.5803075e-02 
1.4208646e+00 1.2714047e+00 -7.7189870e-02 
1.4258381e+00 1.2760915e+00 -9.3136072e-02 
1.4200053e+00 1.2707030e+00 -6.8646193e-02 
1.4181082e+00 1.2683318e+00 -9.3942098e-02 
1.4212993e+00 1.2718226e+00 -7.8527495e-02 
1.4144908e+00 1.2648842e+00 -8.4790103e-02 
1.4148600e+00 1.2655188e+00 -7.0100121e-02 
1.4107784e+00 1.2610457e+00 -9.1284685e-02 
1.4257873e+00 1.2758691e+00 -1.0184587e-01 
1.4088821e+00 1.2594253e+00 -7.6184630e-02 
1.4113020e+00 1.2619565e+00 -7.0510559e-02 
1.4172865e+00 1.2674936e+00 -9.4549760e-02 
1.4156038e+00 1.2659309e+00 -8.8057883e-02 
1.4094669e+00 1.2597082e+00 -9.1962099e-02 
1.4024699e+00 1.2528644e+00 -8.3891429e-02 
1.4028374e+00 1.2535024e+00 -6.9054171e-02 
1.4037782e+00 1.2544767e+00 -6.7205146e-02 
1.4020082e+00 1.2522258e+00 -9.2844799e-02 
1.4050356e+00 1.2555401e+00 -7.8040779e-02 
1.3968228e+00 1.2473699e+00 -7.5169548e-02 
1.3945241e+00 1.2447871e+00 -9.0179086e-02 
1.3944910e+00 1.2450101e+00 -7.6451316e-02 
1.4084373e+00 1.2585074e+00 -1.0061607e-01 
1.3948922e+00 1.2455528e+00 -6.9126628e-02 
1.4004424e+00 1.2506452e+00 -9.3059294e-02 
1.3903729e+00 1.2407722e+00 -8.2973115e-02 
1.3907405e+00 1.2414093e+00 -6.7999102e-02 
1.3929567e+00 1.2431970e+00 -9.0800501e-02 
1.3983574e+00 1.2486675e+00 -8.7368406e-02 
1.3872088e+00 1.2379198e+00 -6.5746605e-02 
1.3846928e+00 1.2352468e+00 -7.4141406e-02 
1.3855592e+00 1.2357808e+00 -9.1720656e-02 
1.3882025e+00 1.2387148e+00 -7.6871939e-02 
1.3781967e+00 1.2286052e+00 -8.2059480e-02 
1.3785779e+00 1.2292594e+00 -6.6946059e-02 
1.3779010e+00 1.2281801e+00 -8.9040451e-02 
1.3911153e+00 1.2411805e+00 -9.9385276e-02 
1.3781362e+00 1.2288146e+00 -6.7722857e-02 
1.3835053e+00 1.2337122e+00 -9.1804631e-02 
1.3724850e+00 1.2230570e+00 -7.3119767e-02 
1.3762213e+00 1.2264752e+00 -8.9607216e-02 
1.3814449e+00 1.2317486e+00 -8.6911619e-02 
1.3695165e+00 1.2199970e+00 -7.8386180e-02 
1.3702877e+00 1.2210267e+00 -6.4254850e-02 
1.3687474e+00 1.2189876e+00 -9.0562418e-02 
1.3659488e+00 1.2163819e+00 -8.1141666e-02 
1.3708115e+00 1.2213377e+00 -7.6005220e-02 
1.3648390e+00 1.2155578e+00 -6.5145418e-02 
1.3609202e+00 1.2112240e+00 -8.7878235e-02 
1.3601969e+00 1.2107974e+00 -7.2088316e-02 
1.3738467e+00 1.2239264e+00 -9.8150179e-02 
1.3610401e+00 1.2117360e+00 -6.7191496e-02 
1.3660092e+00 1.2162464e+00 -9.0326034e-02 
1.3598162e+00 1.2100905e+00 -8.8538662e-02 
1.3650634e+00 1.2153609e+00 -8.7310925e-02 
1.3536633e+00 1.2041249e+00 -8.0164529e-02 
1.3540472e+00 1.2047831e+00 -6.4843141e-02 
1.3530065e+00 1.2037836e+00 -6.2743329e-02 
1.3516465e+00 1.2019221e+00 -8.9374080e-02 
1.3479217e+00 1.1985513e+00 -7.1064241e-02 
1.3500898e+00 1.2006546e+00 -7.4649379e-02 
1.3437033e+00 1.1940503e+00 -8.6695157e-02 
1.3566400e+00 1.2067511e+00 -9.6908696e-02 
1.3414290e+00 1.1919185e+00 -7.9155862e-02 
1.3418195e+00 1.1925838e+00 -6.3829690e-02 
1.3437934e+00 1.1945509e+00 -6.4728849e-02 
1.3478794e+00 1.1982130e+00 -8.6089574e-02 
1.3450487e+00 1.1953310e+00 -8.8896580e-02 
1.3396561e+00 1.1899858e+00 -8.7068886e-02 
1.3357295e+00 1.1863905e+00 -7.0053428e-02 
1.3358051e+00 1.1866308e+00 -6.1234560e-02 
1.3345820e+00 1.1849025e+00 -8.8204160e-02 
1.3341770e+00 1.1848480e+00 -7.0334002e-02 
1.3292860e+00 1.1798137e+00 -7.8148469e-02 
1.3289814e+00 1.1797947e+00 -6.2070969e-02 
1.3267704e+00 1.1771631e+00 -8.5527234e-02 
1.3394730e+00 1.1896291e+00 -9.5669940e-02 
1.3267225e+00 1.1775410e+00 -6.3154168e-02 
1.3236220e+00 1.1743250e+00 -6.9043711e-02 
1.3252580e+00 1.1756259e+00 -8.6144537e-02 
1.3294566e+00 1.1799337e+00 -8.0409408e-02 
1.3305674e+00 1.1808698e+00 -8.9320585e-02 
1.3238728e+00 1.1742462e+00 -8.6013190e-02 
1.3188593e+00 1.1697469e+00 -5.9767190e-02 
1.3172179e+00 1.1677916e+00 -7.7143900e-02 
1.3176113e+00 1.1684569e+00 -6.1833553e-02 
1.3177997e+00 1.1681668e+00 -8.7040260e-02 
1.3172553e+00 1.1679943e+00 -6.8602189e-02 
1.3116020e+00 1.1623560e+00 -6.8049625e-02 
1.3101186e+00 1.1605668e+00 -8.4362969e-02 
1.3223544e+00 1.1725684e+00 -9.4452389e-02 
1.3099152e+00 1.1608042e+00 -6.1617758e-02 
1.3069818e+00 1.1578918e+00 -6.0059987e-02 
1.3052518e+00 1.1558774e+00 -7.6142982e-02 
1.3086299e+00 1.1590505e+00 -8.5007705e-02 
1.3134742e+00 1.1638329e+00 -8.8103883e-02 
1.3136270e+00 1.1640700e+00 -8.3651960e-02 
1.3021753e+00 1.1531343e+00 -5.8329128e-02 
1.3075293e+00 1.1581440e+00 -7.5518399e-02 
1.3012922e+00 1.1517255e+00 -8.5887872e-02 
1.2996788e+00 1.1504807e+00 -6.7060329e-02 
1.3044206e+00 1.1548599e+00 -8.4599920e-02 
1.3005983e+00 1.1514169e+00 -6.6913292e-02 
1.2933655e+00 1.1440405e+00 -7.5154744e-02 
1.2937356e+00 1.1442591e+00 -8.3220579e-02 
1.3052591e+00 1.1555300e+00 -9.3202174e-02 
1.2933671e+00 1.1443390e+00 -6.0116705e-02 
1.2915659e+00 1.1425508e+00 -5.8607172e-02 
1.2922773e+00 1.1427728e+00 -8.3888188e-02 
1.2878244e+00 1.1386931e+00 -6.6085368e-02 
1.2964119e+00 1.1468271e+00 -8.6884499e-02 
1.2965586e+00 1.1470598e+00 -8.2436271e-02 
1.2857445e+00 1.1367950e+00 -5.6919891e-02 
1.2850566e+00 1.1355723e+00 -8.4749103e-02 
1.2815592e+00 1.1323057e+00 -7.4163444e-02 
1.2819537e+00 1.1329685e+00 -5.8918763e-02 
1.2877570e+00 1.1384937e+00 -7.2783835e-02 
1.2874159e+00 1.1379347e+00 -8.3346426e-02 
1.2841988e+00 1.1351132e+00 -6.5267570e-02 
1.2792058e+00 1.1301234e+00 -6.5370828e-02 
1.2776297e+00 1.1282430e+00 -8.2087584e-02 
1.2760657e+00 1.1270009e+00 -6.5122008e-02 
1.2882216e+00 1.1385604e+00 -9.1956303e-02 
1.2758217e+00 1.1269208e+00 -5.6342036e-02 
1.2770778e+00 1.1281443e+00 -5.8654323e-02 
1.2761995e+00 1.1267812e+00 -8.2784474e-02 
1.2794203e+00 1.1299250e+00 -8.5662730e-02 
1.2795594e+00 1.1301534e+00 -8.1224874e-02 
1.2698509e+00 1.1206769e+00 -7.3180966e-02 
1.2702301e+00 1.1213226e+00 -5.7973050e-02 
1.2694130e+00 1.1203171e+00 -6.8581603e-02 
1.2695620e+00 1.1207160e+00 -5.5552088e-02 
1.2694287e+00 1.1202942e+00 -7.0734724e-02 
1.2691034e+00 1.1197096e+00 -8.3615951e-02 
1.2708045e+00 1.1216503e+00 -7.1610019e-02 
1.2704797e+00 1.1211014e+00 -8.2094148e-02 
1.2680625e+00 1.1190840e+00 -6.3676059e-02 
1.2643999e+00 1.1154158e+00 -6.4157702e-02 
1.2641505e+00 1.1153311e+00 -5.5406537e-02 
1.2617931e+00 1.1125088e+00 -8.0949843e-02 
1.2597984e+00 1.1109552e+00 -5.7699494e-02 
1.2610296e+00 1.1122135e+00 -5.7219520e-02 
1.2712543e+00 1.1216918e+00 -9.0710267e-02 
1.2594376e+00 1.1104871e+00 -6.3844629e-02 
1.2582314e+00 1.1091349e+00 -7.2202116e-02 
1.2604010e+00 1.1110888e+00 -8.1709944e-02 
1.2624975e+00 1.1131179e+00 -8.4443323e-02 
1.2626302e+00 1.1133419e+00 -8.0015935e-02 
1.2528276e+00 1.1039302e+00 -6.3220099e-02 
1.2536415e+00 1.1049178e+00 -5.4210763e-02 
1.2533948e+00 1.1041173e+00 -8.2494631e-02 
1.2521710e+00 1.1033196e+00 -6.2090449e-02 
1.2539194e+00 1.1048791e+00 -7.0457682e-02 
1.2536085e+00 1.1043497e+00 -8.0859356e-02 
1.2467082e+00 1.0977025e+00 -7.1242124e-02 
1.2474118e+00 1.0985496e+00 -6.3528836e-02 
1.2470812e+00 1.0983529e+00 -5.6125060e-02 
1.2462140e+00 1.0970434e+00 -7.9843901e-02 
1.2452350e+00 1.0965403e+00 -5.5821773e-02 
1.2543612e+00 1.1049166e+00 -8.9461491e-02 
1.2448540e+00 1.0956556e+00 -8.0630608e-02 
1.2413409e+00 1.0925404e+00 -6.2279161e-02 
1.2410933e+00 1.0924568e+00 -5.3536061e-02 
1.2380399e+00 1.0891275e+00 -6.9086626e-02 
1.2379667e+00 1.0888060e+00 -8.1389509e-02 
1.2379564e+00 1.0893619e+00 -5.2901883e-02 
1.2456493e+00 1.0963933e+00 -8.3222941e-02 
1.2457762e+00 1.0966117e+00 -7.8805268e-02 
1.2363997e+00 1.0876280e+00 -6.2599316e-02 
1.2358894e+00 1.0870382e+00 -6.7180149e-02 
1.2352598e+00 1.0863563e+00 -7.0284285e-02 
1.2356366e+00 1.0870115e+00 -5.5210195e-02 
1.2365171e+00 1.0878053e+00 -6.0558502e-02 
1.2370960e+00 1.0881974e+00 -6.9290042e-02 
1.2367976e+00 1.0876782e+00 -7.9616793e-02 
1.2308993e+00 1.0818579e+00 -7.8741878e-02 
1.2299371e+00 1.0812466e+00 -6.1355777e-02 
1.2296937e+00 1.0811670e+00 -5.2627429e-02 
1.2296973e+00 1.0811528e+00 -5.4465409e-02 
1.2295550e+00 1.0804840e+00 -7.9587795e-02 
1.2375351e+00 1.0882219e+00 -8.8211194e-02 
1.2238997e+00 1.0751065e+00 -6.9335952e-02 
1.2242842e+00 1.0757670e+00 -5.4307681e-02 
1.2230834e+00 1.0743656e+00 -6.5323733e-02 
1.2227874e+00 1.0737664e+00 -8.0298506e-02 
1.2225136e+00 1.0740695e+00 -5.1606052e-02 
1.2288584e+00 1.0797437e+00 -8.2001008e-02 
1.2289807e+00 1.0799578e+00 -7.7594966e-02 
1.2186184e+00 1.0700392e+00 -6.0453486e-02 