# vtk DataFile Version 4.0
vtk output
ASCII
DATASET UNSTRUCTURED_GRID
POINTS 6166 float
-4.3633327e-01 9.6409470e-01 4.4200001e+01 
-4.3633261e-01 9.6409082e-01 4.4079685e+01 
-3.2145375e-01 9.1276109e-01 4.4200001e+01 
-3.8566181e-01 8.4097892e-01 4.4200001e+01 
-3.3069235e-01 9.1895354e-01 4.4019413e+01 
-3.8473952e-01 8.3919770e-01 4.4024357e+01 
-4.3633196e-01 9.6408689e-01 4.3958702e+01 
-2.1293370e-01 8.4677851e-01 4.4200001e+01 
-2.9042658e-01 7.3813015e-01 4.4200001e+01 
-2.1019450e-01 8.4669626e-01 4.4077393e+01 
-2.8909999e-01 7.3605996e-01 4.4073399e+01 
-3.2963324e-01 9.1929907e-01 4.3898094e+01 
-3.8679782e-01 8.4179753e-01 4.3889645e+01 
-2.0740938e-01 8.4661204e-01 4.3952713e+01 
-4.3633130e-01 9.6408290e-01 4.3837040e+01 
-1.1677200e-01 7.7521002e-01 4.4200001e+01 
-2.8775173e-01 7.3395580e-01 4.3944717e+01 
-1.9365783e-01 6.6203654e-01 4.4200001e+01 
-1.1309985e-01 7.7540898e-01 4.4012005e+01 
-1.9181472e-01 6.5888047e-01 4.4006447e+01 
-3.2856464e-01 9.1964108e-01 4.3776085e+01 
-3.8823184e-01 8.4352189e-01 4.3765770e+01 
-2.0457739e-01 8.4652513e-01 4.3825886e+01 
-2.8638119e-01 7.3181647e-01 4.3813885e+01 
-4.3633065e-01 9.6407896e-01 4.3714680e+01 
-1.0911675e-01 7.7426714e-01 4.3886200e+01 
-2.1001574e-02 6.8269837e-01 4.4200001e+01 
-1.8902887e-01 6.5566909e-01 4.3876659e+01 
-7.8887597e-02 5.9015810e-01 4.4200001e+01 
-3.2748649e-01 9.1997939e-01 4.3653378e+01 
-3.9889076e-01 8.5876143e-01 4.3651733e+01 
-2.0169757e-01 8.4643483e-01 4.3696846e+01 
-7.2496021e-03 6.7325598e-01 4.3947758e+01 
-1.0504345e-01 7.7307969e-01 4.3758209e+01 
-2.8498772e-01 7.2964084e-01 4.3680840e+01 
-6.3224643e-02 5.7783771e-01 4.3940754e+01 
3.5808440e-02 6.2679136e-01 4.4056572e+01 
-1.8616955e-01 6.5238589e-01 4.3744686e+01 
-4.3632996e-01 9.6407503e-01 4.3591618e+01 
-9.8678423e-03 5.4892725e-01 4.4055367e+01 
-1.8652271e-02 6.8798620e-01 4.3834026e+01 
-7.9845116e-02 5.8636194e-01 4.3823372e+01 
8.7777540e-02 5.7885915e-01 4.4200001e+01 
5.3622175e-02 5.1732427e-01 4.4200001e+01 
-3.2639861e-01 9.2031354e-01 4.3529953e+01 
-3.9894739e-01 8.5844576e-01 4.3528313e+01 
-1.9876897e-01 8.4634024e-01 4.3565521e+01 
-1.0087753e-01 7.7184403e-01 4.3627972e+01 
-2.8357074e-01 7.2742778e-01 4.3545506e+01 
-1.8323407e-01 6.4902818e-01 4.3610458e+01 
-4.3632931e-01 9.6407109e-01 4.3467831e+01 
3.1033519e-03 6.6751039e-01 4.3691772e+01 
-5.3600248e-02 5.6906003e-01 4.3676846e+01 
1.2436585e-01 5.5082864e-01 4.3886215e+01 
1.7079005e-01 5.1095647e-01 4.4054855e+01 
1.4951277e-01 4.6697062e-01 4.4053665e+01 
1.0028158e-01 4.8915190e-01 4.3877911e+01 
-4.0513036e-01 8.6722642e-01 4.3405304e+01 
-3.2530096e-01 9.2064321e-01 4.3405800e+01 
-9.6616447e-02 7.7055699e-01 4.3495411e+01 
-8.4563000e-03 6.8258613e-01 4.3574005e+01 
-1.9579062e-01 8.4624058e-01 4.3431831e+01 
2.1753120e-01 4.7335833e-01 4.4200001e+01 
2.0360756e-01 4.4289169e-01 4.4200001e+01 
-1.8021962e-01 6.4559317e-01 4.3473904e+01 
-7.0636064e-02 5.7773441e-01 4.3555408e+01 
-2.8212959e-01 7.2517604e-01 4.3407806e+01 
-4.3632865e-01 9.6406716e-01 4.3343307e+01 
1.3810426e-01 5.4143524e-01 4.3628246e+01 
-3.2419339e-01 9.2096806e-01 4.3280907e+01 
-3.9903235e-01 8.5775709e-01 4.3279266e+01 
-9.2257597e-02 7.6921552e-01 4.3360443e+01 
1.1508528e-01 4.7804743e-01 4.3612068e+01 
-1.9276154e-01 8.4613472e-01 4.3295704e+01 
1.4013666e-02 6.6131532e-01 4.3426643e+01 
-1.7712323e-01 6.4207786e-01 4.3334946e+01 
-2.8066361e-01 7.2288430e-01 4.3267666e+01 
-4.3382257e-02 5.5983055e-01 4.3403778e+01 
-4.3632799e-01 9.6406323e-01 4.3218033e+01 
3.7877345e-01 3.8273901e-01 4.4200001e+01 
3.9076596e-01 3.7443376e-01 4.3993755e+01 
-3.2307580e-01 9.2128778e-01 4.3155251e+01 
-3.9906058e-01 8.5738426e-01 4.3153610e+01 
-8.7798268e-02 7.6781619e-01 4.3222996e+01 
1.9689407e-02 6.5803534e-01 4.3290459e+01 
-6.0862999e-02 5.6866169e-01 4.3278019e+01 
-1.8968078e-01 8.4602165e-01 4.3157055e+01 
-1.7394182e-01 6.3847917e-01 4.3193501e+01 
-4.3632734e-01 9.6405929e-01 4.3091995e+01 
4.0275589e-01 3.6612594e-01 4.3787510e+01 
1.2304078e-01 5.5709994e-01 4.3330139e+01 
-2.7917209e-01 7.2055119e-01 4.3125000e+01 
2.5336364e-01 4.4907436e-01 4.3468094e+01 
2.3670304e-01 4.1684708e-01 4.3469433e+01 
1.3086085e-01 4.6634668e-01 4.3336948e+01 
-3.8351217e-01 8.3473074e-01 4.3036392e+01 
-3.2194808e-01 9.2160189e-01 4.3028820e+01 
2.5518833e-02 6.5462554e-01 4.3151749e+01 
-8.3235659e-02 7.6635528e-01 4.3082981e+01 
4.1474071e-01 3.5781288e-01 4.3581264e+01 
-1.8654740e-01 8.4590012e-01 4.3015797e+01 
-3.2522827e-02 5.5011308e-01 4.3120937e+01 
-1.7067213e-01 6.3479382e-01 4.3049488e+01 
-4.3632668e-01 9.6405542e-01 4.2965172e+01 
-2.7765438e-01 7.1817529e-01 4.2979721e+01 
2.6620242e-01 4.4011977e-01 4.3261948e+01 
1.3584816e-02 6.7044950e-01 4.3025066e+01 
-3.2081014e-01 9.2191011e-01 4.2901604e+01 
-3.8160574e-01 8.3169121e-01 4.2902863e+01 
-7.8566879e-02 7.6482886e-01 4.2940315e+01 
-5.0480481e-02 5.5910730e-01 4.2990566e+01 
4.2671782e-01 3.4949207e-01 4.3375019e+01 
1.6821145e-01 5.2049083e-01 4.3083881e+01 
-1.8336046e-01 8.4576881e-01 4.2871841e+01 
-4.3632606e-01 9.6405160e-01 4.2837555e+01 
-1.6731077e-01 6.3101834e-01 4.2902817e+01 
1.4768846e-01 4.5400122e-01 4.3051926e+01 
-2.7610970e-01 7.1575516e-01 4.2831745e+01 
-3.1966189e-01 9.2221189e-01 4.2773579e+01 
-3.8560396e-01 8.3684862e-01 4.2767078e+01 
3.7660085e-02 6.4738947e-01 4.2866421e+01 
-7.3788933e-02 7.6323271e-01 4.2794899e+01 
4.3868470e-01 3.4116083e-01 4.3168777e+01 
-4.3632543e-01 9.6404779e-01 4.2709122e+01 
-2.0968946e-02 5.3986710e-01 4.2827656e+01 
-1.8011902e-01 8.4562629e-01 4.2725094e+01 
-1.6385415e-01 6.2714905e-01 4.2753403e+01 
-2.7453732e-01 7.1328926e-01 4.2680973e+01 
-3.1850323e-01 9.2250693e-01 4.2644733e+01 
-3.9907700e-01 8.5570478e-01 4.2643101e+01 
2.5504474e-02 6.6361672e-01 4.2734810e+01 
1.8471870e-01 5.0880390e-01 4.2796177e+01 
-6.8898737e-02 7.6156229e-01 4.2646645e+01 
-3.9438177e-02 5.4903054e-01 4.2692345e+01 
-4.3632481e-01 9.6404403e-01 4.2579861e+01 
4.5063871e-01 3.3281663e-01 4.2962532e+01 
1.6565691e-01 4.4095638e-01 4.2756321e+01 
-1.7682223e-01 8.4547096e-01 4.2575459e+01 
-1.6029853e-01 6.2318206e-01 4.2601143e+01 
-4.0415615e-01 8.6278629e-01 4.2516582e+01 
-3.1733403e-01 9.2279470e-01 4.2515053e+01 
-2.7293649e-01 7.1077597e-01 4.2527313e+01 
5.0482783e-02 6.3954860e-01 4.2569923e+01 
-4.3632418e-01 9.6404034e-01 4.2449757e+01 
-6.3893095e-02 7.5981271e-01 4.2495445e+01 
-8.6617703e-03 5.2904755e-01 4.2523201e+01 
-1.7346917e-01 8.4530097e-01 4.2422829e+01 
-1.5663996e-01 6.1911333e-01 4.2445942e+01 
3.0435190e-01 4.1341871e-01 4.2643494e+01 
4.6257737e-01 3.2445681e-01 4.2756287e+01 
-3.1615424e-01 9.2307472e-01 4.2384518e+01 
-3.9902648e-01 8.5475212e-01 4.2382885e+01 
-2.7130640e-01 7.0821363e-01 4.2370659e+01 
3.8079392e-02 6.5619886e-01 4.2433029e+01 
2.0230262e-01 4.9620378e-01 4.2497147e+01 
-4.3632355e-01 9.6403670e-01 4.2318787e+01 
-5.8768708e-02 7.5797862e-01 4.2341198e+01 
-2.7680276e-02 5.3838593e-01 4.2382599e+01 
1.8486446e-01 4.2715022e-01 4.2449394e+01 
-3.8436696e-01 8.3356136e-01 4.2264896e+01 
8.9545198e-02 5.3233254e-01 4.2382050e+01 
-3.3225983e-01 9.3122375e-01 4.2255634e+01 
-1.7005907e-01 8.4511453e-01 4.2267101e+01 
-1.5287429e-01 6.1493850e-01 4.2287693e+01 
4.7449806e-01 3.1607881e-01 4.2550037e+01 
-2.6964626e-01 7.0560038e-01 4.2210907e+01 
-4.3632296e-01 9.6403313e-01 4.2186939e+01 
6.4036883e-02 6.3103610e-01 4.2261456e+01 
-5.3522192e-02 7.5605446e-01 4.2183796e+01 
-3.7873057e-01 8.2541841e-01 4.2124020e+01 
-3.1376252e-01 9.2360973e-01 4.2120819e+01 
4.4639236e-03 5.1760370e-01 4.2206776e+01 
-1.6659111e-01 8.4490943e-01 4.2108162e+01 
-1.4899719e-01 6.1065292e-01 4.2126286e+01 
-4.3632239e-01 9.6402961e-01 4.2054195e+01 
4.8639825e-01 3.0768004e-01 4.2343792e+01 
-2.6795524e-01 7.0293444e-01 4.2047943e+01 
2.4746621e-01 4.6040925e-01 4.2191032e+01 
7.1105182e-02 6.2650448e-01 4.2102463e+01 
-3.1255043e-01 9.2386365e-01 4.1987617e+01 
-4.8150036e-02 7.5403398e-01 4.2023121e+01 
-1.5144684e-02 5.2712250e-01 4.2060505e+01 
-3.7995064e-01 8.2661813e-01 4.1980038e+01 
2.0541981e-01 4.1251117e-01 4.2130333e+01 
-1.6306458e-01 8.4468329e-01 4.1945896e+01 
-4.3632182e-01 9.6402621e-01 4.1920536e+01 
-1.4500406e-01 6.0625184e-01 4.1961609e+01 
1.3375351e-01 5.6370503e-01 4.1969833e+01 
-2.6623246e-01 7.0021385e-01 4.1881653e+01 
-3.1132740e-01 9.2410773e-01 4.1853493e+01 
-3.9880505e-01 8.5261923e-01 4.1851868e+01 
4.9827534e-01 2.9925787e-01 4.2137547e+01 
3.4194937e-01 3.8685825e-01 4.2025021e+01 
-4.2648647e-02 7.5191063e-01 4.1859051e+01 
-2.5401810e-01 7.9503769e-01 4.1808533e+01 
1.8480448e-02 5.0547802e-01 4.1877510e+01 
-4.3632126e-01 9.6402287e-01 4.1785946e+01 
-1.5947884e-01 8.4443361e-01 4.1780174e+01 
-1.4089009e-01 6.0172999e-01 4.1793541e+01 
-3.1009343e-01 9.2434150e-01 4.1718426e+01 
-4.0306881e-01 8.5845691e-01 4.1716179e+01 
8.5861288e-02 6.1683756e-01 4.1774368e+01 
-2.6447710e-01 6.9743657e-01 4.1711910e+01 
3.0427080e-01 4.1638452e-01 4.1839512e+01 
2.6751360e-01 3.7833902e-01 4.1830902e+01 
5.1012677e-01 2.9080975e-01 4.1931297e+01 
-3.7014309e-02 7.4967718e-01 4.1691463e+01 
-4.3632072e-01 9.6401966e-01 4.1650398e+01 
2.5847588e-02 4.9913955e-01 4.1707767e+01 
-1.5583332e-01 8.4415752e-01 4.1610870e+01 
-3.8322043e-01 8.2981020e-01 4.1595791e+01 
-3.0884841e-01 9.2456430e-01 4.1582397e+01 
-1.3665022e-01 5.9708190e-01 4.1621960e+01 
9.3565010e-02 6.1167872e-01 4.1605015e+01 
-2.6268822e-01 6.9460052e-01 4.1538593e+01 
-4.3632022e-01 9.6401656e-01 4.1513885e+01 
-3.1243213e-02 7.4732590e-01 4.1520226e+01 
2.7603787e-01 3.7115356e-01 4.1624012e+01 
2.8505871e-01 4.3281260e-01 4.1611507e+01 
5.2195001e-01 2.8233302e-01 4.1725052e+01 
3.3468332e-02 4.9260557e-01 4.1534447e+01 
-3.9853087e-01 8.5081697e-01 4.1443768e+01 
-3.2560509e-01 9.3245691e-01 4.1443577e+01 
-1.5212752e-01 8.4385180e-01 4.1437847e+01 
-1.3227913e-01 5.9230179e-01 4.1446728e+01 
-4.3631971e-01 9.6401358e-01 4.1376381e+01 
[...]
POINT_DATA 6166
FIELD FieldData 5
DISPLACEMENT 3 6166  float
-3.6705089e-01 -3.3622164e-01 -4.7990102e-03 
-3.6478710e-01 -3.3393976e-01 -4.7560930e-03 
-3.6701801e-01 -3.3613431e-01 -3.6083471e-03 
-3.6693221e-01 -3.3616504e-01 -6.1777029e-03 
-3.6362505e-01 -3.3271679e-01 -3.6004810e-03 
-3.6362579e-01 -3.3283290e-01 -6.1313370e-03 
-3.6251077e-01 -3.3164522e-01 -4.7129570e-03 
-3.6696884e-01 -3.3604869e-01 -2.8150405e-03 
-3.6684242e-01 -3.3608180e-01 -6.3331337e-03 
-3.6466241e-01 -3.3372152e-01 -2.7212161e-03 
-3.6445850e-01 -3.3367944e-01 -6.3021500e-03 
-3.6134291e-01 -3.3041522e-01 -3.5306802e-03 
-3.6109349e-01 -3.3027986e-01 -6.0727121e-03 
-3.6231688e-01 -3.3135495e-01 -2.6258428e-03 
-3.6022159e-01 -3.2933775e-01 -4.6695960e-03 
-3.6691165e-01 -3.3597043e-01 -2.3603118e-03 
-3.6203539e-01 -3.3123761e-01 -6.2706452e-03 
-3.6678064e-01 -3.3600232e-01 -5.9527131e-03 
-3.6337540e-01 -3.3240256e-01 -2.2202367e-03 
-3.6313602e-01 -3.3232969e-01 -5.9086485e-03 
-3.5904786e-01 -3.2810062e-01 -3.4605623e-03 
-3.5876432e-01 -3.2793176e-01 -6.0227839e-03 
-3.5993105e-01 -3.2894769e-01 -2.5289040e-03 
-3.5957190e-01 -3.2875505e-01 -6.2385825e-03 
-3.5791939e-01 -3.2701719e-01 -4.6259998e-03 
-3.6100787e-01 -3.3001366e-01 -2.1219582e-03 
-3.6683264e-01 -3.3588865e-01 -2.3098167e-03 
-3.6069122e-01 -3.2986569e-01 -5.8706379e-03 
-3.6672640e-01 -3.3591136e-01 -5.1534427e-03 
-3.5673964e-01 -3.2577279e-01 -3.3901392e-03 
-3.5663271e-01 -3.2577905e-01 -5.8939960e-03 
-3.5750362e-01 -3.2649857e-01 -2.4303924e-03 
-3.6207938e-01 -3.3109370e-01 -2.1396785e-03 
-3.5859931e-01 -3.2758346e-01 -2.0221099e-03 
-3.5706675e-01 -3.2623059e-01 -6.2059215e-03 
-3.6183873e-01 -3.3098179e-01 -4.9992879e-03 
-3.6408615e-01 -3.3311975e-01 -2.2481510e-03 
-3.5820532e-01 -3.2736033e-01 -5.8317594e-03 
-3.5560402e-01 -3.2468328e-01 -4.5821480e-03 
-3.6397451e-01 -3.3311388e-01 -4.5833043e-03 
-3.5995284e-01 -3.2894722e-01 -2.0346902e-03 
-3.5963607e-01 -3.2876843e-01 -5.1087686e-03 
-3.6674416e-01 -3.3579594e-01 -2.2290067e-03 
-3.6667424e-01 -3.3580810e-01 -4.0382314e-03 
-3.5441813e-01 -3.2343167e-01 -3.3193647e-03 
-3.5431033e-01 -3.2343847e-01 -5.8568697e-03 
-3.5503334e-01 -3.2400626e-01 -2.3302978e-03 
-3.5614848e-01 -3.2511061e-01 -1.9206903e-03 
-3.5451865e-01 -3.2366279e-01 -6.1726840e-03 
-3.5567707e-01 -3.2481232e-01 -5.7920483e-03 
-3.5327512e-01 -3.2233599e-01 -4.5381300e-03 
-3.5725906e-01 -3.2623100e-01 -1.9622699e-03 
-3.5686600e-01 -3.2596871e-01 -4.8899720e-03 
-3.6081773e-01 -3.2981488e-01 -1.9590938e-03 
-3.6395749e-01 -3.3297443e-01 -1.9006225e-03 
-3.6388570e-01 -3.3295843e-01 -3.1343652e-03 
-3.6059323e-01 -3.2966271e-01 -3.5783197e-03 
-3.5200435e-01 -3.2111189e-01 -5.7629533e-03 
-3.5208300e-01 -3.2107687e-01 -3.2483942e-03 
-3.5365403e-01 -3.2259387e-01 -1.8177113e-03 
-3.5505709e-01 -3.2400838e-01 -1.8523418e-03 
-3.5251880e-01 -3.2146934e-01 -2.2286137e-03 
-3.6665761e-01 -3.3568862e-01 -1.7847352e-03 
-3.6662352e-01 -3.3569261e-01 -2.6242523e-03 
-3.5310522e-01 -3.2222036e-01 -5.7513420e-03 
-3.5458747e-01 -3.2367918e-01 -5.0028926e-03 
-3.5192636e-01 -3.2105058e-01 -6.1387019e-03 
-3.5093269e-01 -3.1997499e-01 -4.4937879e-03 
-3.5595697e-01 -3.2491168e-01 -1.7863304e-03 
-3.4973431e-01 -3.1870851e-01 -3.1769713e-03 
-3.4962490e-01 -3.1871656e-01 -5.7823192e-03 
-3.5111466e-01 -3.2003185e-01 -1.7131838e-03 
-3.5558274e-01 -3.2460916e-01 -3.4148959e-03 
-3.4995869e-01 -3.1888664e-01 -2.1253848e-03 
-3.5226688e-01 -3.2119521e-01 -1.7798252e-03 
-3.5048836e-01 -3.1958312e-01 -5.7096463e-03 
-3.4928834e-01 -3.1839234e-01 -6.1041936e-03 
-3.5172135e-01 -3.2078245e-01 -4.7745439e-03 
-3.4857640e-01 -3.1760019e-01 -4.4492879e-03 
-3.6659211e-01 -3.3556256e-01 -4.6554234e-04 
-3.6270520e-01 -3.3164132e-01 -3.2342647e-04 
-3.4737161e-01 -3.1632596e-01 -3.1053100e-03 
-3.4726149e-01 -3.1633478e-01 -5.7448782e-03 
-3.4852889e-01 -3.1742328e-01 -1.6071154e-03 
-3.4970301e-01 -3.1860912e-01 -1.6868053e-03 
-3.4936228e-01 -3.1841207e-01 -4.8910906e-03 
-3.4735146e-01 -3.1625664e-01 -2.0206294e-03 
-3.4782523e-01 -3.1689936e-01 -5.6669386e-03 
-3.4620604e-01 -3.1521130e-01 -4.4045304e-03 
-3.5881832e-01 -3.2772028e-01 -1.8147707e-04 
-3.5036281e-01 -3.1927267e-01 -1.6671942e-03 
-3.4660336e-01 -3.1568700e-01 -6.0689030e-03 
-3.5286877e-01 -3.2178003e-01 -1.3089876e-03 
-3.5285762e-01 -3.2181090e-01 -2.2335704e-03 
-3.5039815e-01 -3.1938007e-01 -3.2412147e-03 
-3.4503669e-01 -3.1409886e-01 -5.8390195e-03 
-3.4499475e-01 -3.1392953e-01 -3.0335553e-03 
-3.4709203e-01 -3.1597582e-01 -1.5924982e-03 
-3.4589532e-01 -3.1476668e-01 -1.4994603e-03 
-3.5493177e-01 -3.2379979e-01 -3.9859988e-05 
-3.4469587e-01 -3.1357795e-01 -1.9140464e-03 
-3.4639412e-01 -3.1541252e-01 -4.6523958e-03 
-3.4511414e-01 -3.1416759e-01 -5.6233457e-03 
-3.4382156e-01 -3.1280831e-01 -4.3596025e-03 
-3.4386989e-01 -3.1293288e-01 -6.0328948e-03 
-3.4898463e-01 -3.1786209e-01 -1.1639098e-03 
-3.4472454e-01 -3.1358653e-01 -1.4726530e-03 
-3.4260353e-01 -3.1151891e-01 -2.9613839e-03 
-3.4252357e-01 -3.1156728e-01 -5.8128652e-03 
-3.4321240e-01 -3.1206053e-01 -1.3903087e-03 
-3.4394947e-01 -3.1295645e-01 -4.7730431e-03 
-3.5104629e-01 -3.1988052e-01 1.0099261e-04 
-3.4570214e-01 -3.1456864e-01 -1.4227621e-03 
-3.4199014e-01 -3.1084901e-01 -1.8060046e-03 
-3.4142235e-01 -3.1039083e-01 -4.3145129e-03 
-3.4235391e-01 -3.1138632e-01 -5.5784048e-03 
-3.4502897e-01 -3.1396526e-01 -3.0560021e-03 
-3.4108630e-01 -3.1012875e-01 -5.9960713e-03 
-3.4019768e-01 -3.0909368e-01 -2.8890953e-03 
-3.3997628e-01 -3.0899933e-01 -5.7416018e-03 
-3.4172285e-01 -3.1056133e-01 -1.4002464e-03 
-3.4047863e-01 -3.0930334e-01 -1.2796383e-03 
-3.4716082e-01 -3.1596154e-01 2.4159894e-04 
-3.3900863e-01 -3.0795902e-01 -4.2690486e-03 
-3.4087273e-01 -3.0984765e-01 -4.5232866e-03 
-3.3923283e-01 -3.0806842e-01 -1.6964750e-03 
-3.3954260e-01 -3.0855414e-01 -5.5325809e-03 
-3.3825135e-01 -3.0727306e-01 -5.9582493e-03 
-3.3777732e-01 -3.0665407e-01 -2.8167083e-03 
-3.3766419e-01 -3.0666515e-01 -5.5937199e-03 
-3.3926451e-01 -3.0808076e-01 -1.2756453e-03 
-3.4028533e-01 -3.0910641e-01 -1.2313835e-03 
-3.3769238e-01 -3.0649370e-01 -1.1677118e-03 
-3.3833694e-01 -3.0730054e-01 -4.6483488e-03 
-3.3658051e-01 -3.0551273e-01 -4.2231539e-03 
-3.4327722e-01 -3.1204519e-01 3.8145951e-04 
-3.3946317e-01 -3.0835268e-01 -2.8588430e-03 
-3.3642247e-01 -3.0523488e-01 -1.5854842e-03 
-3.3667934e-01 -3.0566964e-01 -5.4851105e-03 
-3.3529428e-01 -3.0427614e-01 -5.5097281e-03 
-3.3534235e-01 -3.0420035e-01 -2.7437448e-03 
-3.3536351e-01 -3.0436426e-01 -5.9199072e-03 
-3.3614725e-01 -3.0493999e-01 -1.2036568e-03 
-3.3413741e-01 -3.0305183e-01 -4.1773114e-03 
-3.3485252e-01 -3.0363050e-01 -1.0543956e-03 
-3.3514574e-01 -3.0407682e-01 -4.3861899e-03 
-3.3355725e-01 -3.0234638e-01 -1.4729537e-03 
-3.3376259e-01 -3.0273166e-01 -5.4370807e-03 
-3.3734059e-01 -3.0611986e-01 -7.3272246e-04 
-3.3939561e-01 -3.0813169e-01 5.2047352e-04 
-3.3289227e-01 -3.0173102e-01 -2.6705856e-03 
-3.3277768e-01 -3.0174327e-01 -5.5168327e-03 
-3.3242089e-01 -3.0140093e-01 -5.8807945e-03 
-3.3359262e-01 -3.0236331e-01 -1.0739426e-03 
-3.3465984e-01 -3.0343547e-01 -1.0337508e-03 
-3.3167931e-01 -3.0057591e-01 -4.1309339e-03 
-3.3195642e-01 -3.0071107e-01 -9.3931728e-04 
-3.3251330e-01 -3.0143338e-01 -4.5161587e-03 
-3.3368933e-01 -3.0253214e-01 -2.6488157e-03 
-3.3054492e-01 -2.9949996e-01 -5.5986890e-03 
-3.3251730e-01 -3.0134267e-01 -2.4288094e-03 
-3.3047959e-01 -2.9930791e-01 -2.7744779e-03 
-3.3063552e-01 -2.9940128e-01 -1.3588847e-03 
-3.3078948e-01 -2.9973772e-01 -5.3871274e-03 
-3.3551574e-01 -3.0421993e-01 6.5825932e-04 
-3.2942185e-01 -2.9838145e-01 -5.8403173e-03 
-3.2920635e-01 -2.9808566e-01 -4.0844320e-03 
-3.3035168e-01 -2.9909897e-01 -1.0022147e-03 
-3.2900304e-01 -2.9773411e-01 -8.2307280e-04 
-3.2789579e-01 -2.9683480e-01 -5.5957418e-03 
-3.2794720e-01 -2.9674879e-01 -2.5245289e-03 
-3.2919911e-01 -2.9808635e-01 -4.2409459e-03 
-3.2765567e-01 -2.9639813e-01 -1.2429672e-03 
-3.2775891e-01 -2.9668650e-01 -5.3364146e-03 
-3.2671812e-01 -2.9558015e-01 -4.0379516e-03 
-3.3163819e-01 -3.0031198e-01 7.9499703e-04 
-3.2636464e-01 -2.9530391e-01 -5.7991087e-03 
-3.2888764e-01 -2.9761493e-01 -7.5395615e-04 
-3.2736760e-01 -2.9609177e-01 -8.9974987e-04 
-3.2545143e-01 -2.9423544e-01 -2.4510003e-03 
-3.2599017e-01 -2.9469803e-01 -7.0584670e-04 
-3.2646370e-01 -2.9534060e-01 -4.3759439e-03 
-3.2519844e-01 -2.9411927e-01 -5.5440785e-03 
-3.2769307e-01 -2.9648858e-01 -2.4250858e-03 
-3.2461566e-01 -2.9333493e-01 -1.1260677e-03 
-3.2421368e-01 -2.9305932e-01 -3.9914059e-03 
-3.2466969e-01 -2.9357690e-01 -5.2835508e-03 
-3.2482892e-01 -2.9353696e-01 -8.6301734e-04 
-3.2324788e-01 -2.9216745e-01 -5.7565384e-03 
-3.2294008e-01 -2.9170665e-01 -2.3778731e-03 
-3.2282200e-01 -2.9172081e-01 -5.3610560e-03 
-3.2776502e-01 -2.9640976e-01 9.3032583e-04 
-3.2571793e-01 -2.9440632e-01 -3.1185482e-04 
-3.2291675e-01 -2.9160163e-01 -5.8763061e-04 
-3.2197794e-01 -2.9079902e-01 -3.7174108e-03 
-3.2302001e-01 -2.9186425e-01 -4.0865233e-03 
-3.2169440e-01 -2.9052433e-01 -3.9446391e-03 
-3.2151431e-01 -2.9021147e-01 -1.0091113e-03 
-3.2152057e-01 -2.9040757e-01 -5.2284864e-03 
-3.2041344e-01 -2.8916332e-01 -2.3045456e-03 
-3.2028919e-01 -2.8917122e-01 -5.2815014e-03 
-3.2121652e-01 -2.8989649e-01 -6.9400761e-04 
-3.2007006e-01 -2.8897074e-01 -5.7124468e-03 
-3.2226732e-01 -2.9093981e-01 -3.9671810e-04 
-3.2206064e-01 -2.9079542e-01 -1.7977908e-03 
-3.2389358e-01 -2.9250896e-01 1.0638291e-03 
-3.1978142e-01 -2.8844386e-01 -4.6876125e-04 
-3.1915992e-01 -2.8797460e-01 -3.8967400e-03 
-3.1984007e-01 -2.8866372e-01 -4.0047932e-03 
-3.1835026e-01 -2.8702539e-01 -8.9064107e-04 
-3.1801382e-01 -2.8688970e-01 -5.4036528e-03 
-3.1787249e-01 -2.8660634e-01 -2.2319471e-03 
-3.1830880e-01 -2.8717723e-01 -5.1732520e-03 
-3.1804794e-01 -2.8670642e-01 -5.8895891e-04 
-3.1683031e-01 -2.8571248e-01 -5.6677232e-03 
-3.1661168e-01 -2.8541085e-01 -3.8489811e-03 
-3.1658128e-01 -2.8522262e-01 -3.4898336e-04 
-3.1818703e-01 -2.8689709e-01 -1.7000148e-03 
-3.1801814e-01 -2.8666687e-01 -3.6934379e-04 
-3.2002807e-01 -2.8861648e-01 1.1953126e-03 
-3.1659701e-01 -2.8540099e-01 -3.9213272e-03 
-3.1519639e-01 -2.8405026e-01 -5.2409144e-03 
-3.1528750e-01 -2.8401315e-01 -2.3497974e-03 
-3.1512061e-01 -2.8377539e-01 -7.7036809e-04 
-3.1503409e-01 -2.8388438e-01 -5.1154043e-03 
-3.1404671e-01 -2.8283164e-01 -3.8017742e-03 
-3.1525934e-01 -2.8390250e-01 -5.4125494e-04 
-3.1352571e-01 -2.8239048e-01 -5.6212367e-03 
-3.1331560e-01 -2.8193647e-01 -2.2825191e-04 
-3.1274423e-01 -2.8144738e-01 -2.0850450e-03 
-3.1262225e-01 -2.8146353e-01 -5.2007497e-03 
-3.1328967e-01 -2.8207487e-01 -3.8349396e-03 
-3.1450215e-01 -2.8318506e-01 -1.4832645e-03 
-3.1616890e-01 -2.8473210e-01 1.3253602e-03 
-3.1182483e-01 -2.8045946e-01 -6.4938038e-04 
-3.1395885e-01 -2.8257814e-01 -1.3308600e-04 
-3.1146574e-01 -2.8023818e-01 -3.7554314e-03 
-3.1169382e-01 -2.8052706e-01 -5.0559738e-03 
-3.1184211e-01 -2.8046605e-01 -4.3965111e-04 
-3.1015563e-01 -2.7884552e-01 -2.0122603e-03 
-3.1003293e-01 -2.7886313e-01 -5.1606102e-03 
-3.1015483e-01 -2.7900365e-01 -5.5740313e-03 
-3.0998179e-01 -2.7858335e-01 -1.0651239e-04 
-3.0991593e-01 -2.7868369e-01 -3.7459473e-03 
-3.0886918e-01 -2.7763033e-01 -3.7077977e-03 
-3.1081331e-01 -2.7948219e-01 -1.5062710e-03 
-3.1231666e-01 -2.8085649e-01 1.4528686e-03 
-3.0845955e-01 -2.7707565e-01 -5.2734726e-04 
-3.0828574e-01 -2.7710357e-01 -4.9949563e-03 
-3.1021634e-01 -2.7881345e-01 2.0982878e-05 
-3.0755162e-01 -2.7622858e-01 -1.9397483e-03 
-3.0742866e-01 -2.7624744e-01 -5.1201512e-03 
-3.0829433e-01 -2.7689976e-01 -3.2728928e-04 
-3.0671498e-01 -2.7554995e-01 -5.5255941e-03 
-3.0625740e-01 -2.7500683e-01 -3.6592784e-03 
-3.0657721e-01 -2.7516136e-01 1.5956130e-05 
-3.0647326e-01 -2.7522492e-01 -3.6542488e-03 
-3.0493265e-01 -2.7359784e-01 -1.8670732e-03 
-3.0480838e-01 -2.7361602e-01 -5.0803102e-03 
-3.0502251e-01 -2.7362227e-01 -4.0382225e-04 
-3.0847177e-01 -2.7699044e-01 1.5777355e-03 
-3.0480772e-01 -2.7361199e-01 -4.9321651e-03 
-3.0645967e-01 -2.7511314e-01 -1.5110207e-03 
-3.0650419e-01 -2.7508050e-01 1.7893151e-04 
-3.0362907e-01 -2.7236852e-01 -3.6122398e-03 
-3.0469063e-01 -2.7327916e-01 -2.1496339e-04 
-3.0320430e-01 -2.7202725e-01 -5.4751318e-03 
-3.0310044e-01 -2.7166873e-01 1.3828215e-04 
-3.0348459e-01 -2.7221271e-01 -3.3290372e-03 
-3.0229568e-01 -2.7095082e-01 -1.7943549e-03 
-3.0217212e-01 -2.7097192e-01 -5.0379303e-03 
-3.0151233e-01 -2.7009737e-01 -2.8059876e-04 
-3.0463430e-01 -2.7313343e-01 1.7033680e-03 
-3.0098531e-01 -2.6971701e-01 -3.5621920e-03 
-3.0125880e-01 -2.7005106e-01 -4.8676380e-03 
-3.0274323e-01 -2.7130309e-01 2.8944694e-04 
-3.0228284e-01 -2.7090517e-01 -1.1018460e-03 
-3.0108345e-01 -2.6965699e-01 -1.0262360e-04 
-2.9964471e-01 -2.6829118e-01 -1.7203836e-03 
-2.9951897e-01 -2.6831204e-01 -4.9960455e-03 
-2.9962227e-01 -2.6843464e-01 -5.4248916e-03 
-2.9954955e-01 -2.6810411e-01 2.6076683e-04 
-2.9989845e-01 -2.6860616e-01 -3.0679319e-03 
-2.9832458e-01 -2.6704884e-01 -3.5130493e-03 
-2.9792869e-01 -2.6650015e-01 -1.5696012e-04 
-2.9773930e-01 -2.6644725e-01 -3.1787970e-03 
-3.0080548e-01 -2.6928905e-01 1.8253883e-03 
-2.9763663e-01 -2.6641896e-01 -4.8012678e-03 
-2.9902902e-01 -2.6757690e-01 3.4268733e-04 
-2.9697675e-01 -2.6561543e-01 -1.6496414e-03 
-2.9684961e-01 -2.6563534e-01 -4.9549765e-03 
-2.9744700e-01 -2.6600778e-01 1.4488772e-05 
-2.9848015e-01 -2.6708248e-01 -8.6325652e-04 
-2.9596537e-01 -2.6476943e-01 -5.3717354e-03 
-2.9564825e-01 -2.6436579e-01 -3.4658213e-03 
-2.9592195e-01 -2.6446477e-01 3.8416337e-04 
-2.9618400e-01 -2.6488066e-01 -2.9452411e-03 
-2.9429179e-01 -2.6292351e-01 -1.5765441e-03 
-2.9416615e-01 -2.6294646e-01 -4.9128202e-03 
-2.9426384e-01 -2.6282609e-01 -3.3389955e-05 
-2.9698294e-01 -2.6545247e-01 1.9457922e-03 
-2.9393846e-01 -2.6271331e-01 -4.7325394e-03 
-2.9529214e-01 -2.6382846e-01 4.4874183e-04 
-2.9295534e-01 -2.6166835e-01 -3.4160488e-03 
-2.9375756e-01 -2.6230887e-01 1.2853112e-04 
-2.9475290e-01 -2.6333672e-01 -5.8211555e-04 
-2.9228404e-01 -2.6094300e-01 -2.1907920e-03 
-2.9223105e-01 -2.6103017e-01 -5.3192386e-03 
-2.9221454e-01 -2.6074865e-01 5.0696987e-04 
-2.9159123e-01 -2.6021954e-01 -1.5036224e-03 
-2.9234880e-01 -2.6103339e-01 -2.7444426e-03 
-2.9111522e-01 -2.5989822e-01 -5.0002979e-03 
-2.9052067e-01 -2.5907543e-01 9.1667484e-05 
-2.9024467e-01 -2.5895572e-01 -3.3673150e-03 
-2.9317263e-01 -2.6163259e-01 2.0621975e-03 
-2.9016623e-01 -2.5892809e-01 -4.4652848e-03 
-2.9143441e-01 -2.5996593e-01 5.1578198e-04 
-2.9014972e-01 -2.5869277e-01 2.6109786e-04 
-2.9114851e-01 -2.5970984e-01 -1.2662838e-04 
-2.8888196e-01 -2.5750798e-01 -1.4435059e-03 
-2.8875485e-01 -2.5753069e-01 -4.8248777e-03 
-2.8841814e-01 -2.5721428e-01 -5.2642268e-03 
-2.8844422e-01 -2.5697345e-01 6.2800647e-04 
-2.8753731e-01 -2.5624642e-01 -3.3178935e-03 
-2.8777841e-01 -2.5645548e-01 -2.5785118e-03 
-2.8672570e-01 -2.5527719e-01 2.1611893e-04 
-2.8937647e-01 -2.5783089e-01 2.1740559e-03 
-2.8618419e-01 -2.5480804e-01 -1.3919070e-03 
-2.8605893e-01 -2.5483257e-01 -4.7743139e-03 
-2.8636035e-01 -2.5513008e-01 -4.6215500e-03 
-2.8735784e-01 -2.5591451e-01 -1.1215529e-05 
-2.8680980e-01 -2.5533557e-01 6.6973083e-04 
-2.8570300e-01 -2.5424382e-01 3.8807717e-04 
-2.8484866e-01 -2.5355622e-01 -3.2678298e-03 
-2.8462312e-01 -2.5341859e-01 -5.2116578e-03 
-2.8468448e-01 -2.5321084e-01 7.5134897e-04 
-2.8425407e-01 -2.5296125e-01 -3.1731711e-03 
-2.8350669e-01 -2.5213072e-01 -1.3429074e-03 
-2.8320646e-01 -2.5198612e-01 -4.8746699e-03 
-2.8299385e-01 -2.5154266e-01 3.3645262e-04 
-2.8558946e-01 -2.5404161e-01 2.2843892e-03 
-2.8259435e-01 -2.5136691e-01 -4.5869239e-03 
-2.8217864e-01 -2.5088730e-01 -3.2202278e-03 
-2.8253648e-01 -2.5107455e-01 5.0547777e-04 
-2.8326839e-01 -2.5186881e-01 -8.5028465e-04 
-2.8360453e-01 -2.5211582e-01 1.0856109e-03 
-2.8216386e-01 -2.5070232e-01 5.0722278e-04 
-2.8088537e-01 -2.4968337e-01 -5.1568244e-03 
-2.8084576e-01 -2.4947181e-01 -1.2955423e-03 
-2.8072232e-01 -2.4949719e-01 -4.6737599e-03 
-2.8098714e-01 -2.4951118e-01 8.6848630e-04 
-2.8051996e-01 -2.4923272e-01 -3.1771874e-03 
-2.7952847e-01 -2.4824013e-01 -3.1719063e-03 
-2.7932411e-01 -2.4787275e-01 4.4979554e-04 
-2.8181428e-01 -2.5026676e-01 2.3969559e-03 
-2.7888739e-01 -2.4766502e-01 -4.5510991e-03 
-2.7835038e-01 -2.4713752e-01 -4.8278980e-03 
-2.7820763e-01 -2.4683715e-01 -1.2507209e-03 
-2.7887514e-01 -2.4741240e-01 6.2445930e-04 
-2.7983481e-01 -2.4834618e-01 1.1974000e-03 
-2.7980351e-01 -2.4835950e-01 2.1458100e-04 
-2.7720618e-01 -2.4600893e-01 -5.1027914e-03 
-2.7841347e-01 -2.4704754e-01 -1.4391253e-03 
-2.7735066e-01 -2.4587719e-01 9.8044646e-04 
-2.7689993e-01 -2.4561411e-01 -3.1255283e-03 
-2.7787310e-01 -2.4641213e-01 6.2798150e-04 
-2.7684528e-01 -2.4556632e-01 -3.1792666e-03 
-2.7558762e-01 -2.4421999e-01 -1.2053059e-03 
-2.7571428e-01 -2.4426740e-01 5.6061760e-04 
-2.7804404e-01 -2.4649696e-01 2.5010365e-03 
-2.7523842e-01 -2.4402407e-01 -4.5147580e-03 
-2.7494648e-01 -2.4374071e-01 -4.8064585e-03 
-2.7527490e-01 -2.4381657e-01 7.3938217e-04 
-2.7428693e-01 -2.4300784e-01 -3.0780893e-03 
-2.7607259e-01 -2.4458402e-01 1.3072017e-03 
-2.7604029e-01 -2.4459659e-01 3.2556953e-04 
-2.7358347e-01 -2.4239571e-01 -5.0495854e-03 
-2.7377459e-01 -2.4230745e-01 1.0877225e-03 
-2.7298510e-01 -2.4162558e-01 -1.1632578e-03 
-2.7286431e-01 -2.4165218e-01 -4.5257276e-03 
-2.7404729e-01 -2.4270168e-01 -1.6035381e-03 
-2.7412289e-01 -2.4266754e-01 7.2729652e-04 
-2.7322832e-01 -2.4196137e-01 -3.1790719e-03 
-2.7226454e-01 -2.4099119e-01 -3.0463662e-03 
-2.7216598e-01 -2.4072717e-01 6.6557107e-04 
-2.7169538e-01 -2.4042295e-01 -3.0310010e-03 
-2.7428746e-01 -2.4274343e-01 2.6032506e-03 
-2.7143598e-01 -2.4025065e-01 -4.9579586e-03 
-2.7164757e-01 -2.4044390e-01 -4.4771461e-03 
-2.7173579e-01 -2.4028474e-01 8.4994221e-04 
-2.7232659e-01 -2.4084593e-01 1.4124693e-03 
-2.7229303e-01 -2.4085793e-01 4.3352367e-04 
-2.7040461e-01 -2.3905501e-01 -1.1225194e-03 
-2.7028149e-01 -2.3907854e-01 -4.4757347e-03 
-2.7018824e-01 -2.3888217e-01 -2.1248611e-03 
-2.7001658e-01 -2.3884115e-01 -4.9942215e-03 
-2.7016956e-01 -2.3884286e-01 -1.6519520e-03 
-2.7026120e-01 -2.3880252e-01 1.1880859e-03 
-2.7031109e-01 -2.3897746e-01 -1.4894560e-03 
-2.7038860e-01 -2.3894431e-01 8.2331547e-04 
-2.6967087e-01 -2.3841850e-01 -3.1743478e-03 
-2.6912439e-01 -2.3786218e-01 -2.9874584e-03 
-2.6886547e-01 -2.3769031e-01 -4.9072392e-03 
-2.6867703e-01 -2.3724967e-01 7.6163211e-04 
-2.6799816e-01 -2.3679911e-01 -4.3076021e-03 
-2.6811066e-01 -2.3692310e-01 -4.4404673e-03 
-2.7054703e-01 -2.3901327e-01 2.7014988e-03 
-2.6791263e-01 -2.3665486e-01 -2.9486434e-03 
-2.6784396e-01 -2.3650394e-01 -1.0838282e-03 
-2.6825908e-01 -2.3682006e-01 9.5887098e-04 
-2.6859662e-01 -2.3712982e-01 1.5145489e-03 
-2.6856202e-01 -2.3714118e-01 5.3826097e-04 
-2.6657501e-01 -2.3532411e-01 -2.9409414e-03 
-2.6650849e-01 -2.3534977e-01 -4.9408590e-03 
-2.6680198e-01 -2.3535804e-01 1.2842217e-03 
-2.6616752e-01 -2.3493461e-01 -3.1759057e-03 
-2.6659110e-01 -2.3527044e-01 -1.3736390e-03 
-2.6666981e-01 -2.3524030e-01 9.2008541e-04 
-2.6530537e-01 -2.3397793e-01 -1.0441918e-03 
-2.6528025e-01 -2.3403023e-01 -2.7559015e-03 
-2.6518336e-01 -2.3400442e-01 -4.3761982e-03 
-2.6524600e-01 -2.3383258e-01 8.5771334e-04 
-2.6463056e-01 -2.3346001e-01 -4.4027958e-03 
-2.6682365e-01 -2.3530455e-01 2.7953533e-03 
-2.6483789e-01 -2.3341289e-01 1.0596191e-03 
-2.6404452e-01 -2.3280753e-01 -2.8980728e-03 
-2.6378816e-01 -2.3263803e-01 -4.8154928e-03 
-2.6326597e-01 -2.3196274e-01 -1.3301844e-03 
-2.6340544e-01 -2.3197648e-01 1.3759104e-03 
-2.6305303e-01 -2.3191275e-01 -4.8866947e-03 
-2.6488379e-01 -2.3343277e-01 1.6129119e-03 
-2.6484829e-01 -2.3344317e-01 6.3913490e-04 
-2.6286340e-01 -2.3162627e-01 -2.7209152e-03 
-2.6284769e-01 -2.3156589e-01 -1.7025713e-03 
-2.6278335e-01 -2.3147124e-01 -1.0063912e-03 