# vtk DataFile Version 4.0
vtk output
ASCII
DATASET UNSTRUCTURED_GRID
POINTS 6166 float
-4.3633327e-01 9.6409470e-01 4.4200001e+01 
-4.3633261e-01 9.6409082e-01 4.4079685e+01 
-3.2145375e-01 9.1276109e-01 4.4200001e+01 
-3.8566181e-01 8.4097892e-01 4.4200001e+01 
-3.3069235e-01 9.1895354e-01 4.4019413e+01 
-3.8473952e-01 8.3919770e-01 4.4024357e+01 
-4.3633196e-01 9.6408689e-01 4.3958702e+01 
-2.1293370e-01 8.4677851e-01 4.4200001e+01 
-2.9042658e-01 7.3813015e-01 4.4200001e+01 
-2.1019450e-01 8.4669626e-01 4.4077393e+01 
-2.8909999e-01 7.3605996e-01 4.4073399e+01 
-3.2963324e-01 9.1929907e-01 4.3898094e+01 
-3.8679782e-01 8.4179753e-01 4.3889645e+01 
-2.0740938e-01 8.4661204e-01 4.3952713e+01 
-4.3633130e-01 9.6408290e-01 4.3837040e+01 
-1.1677200e-01 7.7521002e-01 4.4200001e+01 
-2.8775173e-01 7.3395580e-01 4.3944717e+01 
-1.9365783e-01 6.6203654e-01 4.4200001e+01 
-1.1309985e-01 7.7540898e-01 4.4012005e+01 
-1.9181472e-01 6.5888047e-01 4.4006447e+01 
-3.2856464e-01 9.1964108e-01 4.3776085e+01 
-3.8823184e-01 8.4352189e-01 4.3765770e+01 
-2.0457739e-01 8.4652513e-01 4.3825886e+01 
-2.8638119e-01 7.3181647e-01 4.3813885e+01 
-4.3633065e-01 9.6407896e-01 4.3714680e+01 
-1.0911675e-01 7.7426714e-01 4.3886200e+01 
-2.1001574e-02 6.8269837e-01 4.4200001e+01 
-1.8902887e-01 6.5566909e-01 4.3876659e+01 
-7.8887597e-02 5.9015810e-01 4.4200001e+01 
-3.2748649e-01 9.1997939e-01 4.3653378e+01 
-3.9889076e-01 8.5876143e-01 4.3651733e+01 
-2.0169757e-01 8.4643483e-01 4.3696846e+01 
-7.2496021e-03 6.7325598e-01 4.3947758e+01 
-1.0504345e-01 7.7307969e-01 4.3758209e+01 
-2.8498772e-01 7.2964084e-01 4.3680840e+01 
-6.3224643e-02 5.7783771e-01 4.3940754e+01 
3.5808440e-02 6.2679136e-01 4.4056572e+01 
-1.8616955e-01 6.5238589e-01 4.3744686e+01 
-4.3632996e-01 9.6407503e-01 4.3591618e+01 
-9.8678423e-03 5.4892725e-01 4.4055367e+01 
-1.8652271e-02 6.8798620e-01 4.3834026e+01 
-7.9845116e-02 5.8636194e-01 4.3823372e+01 
8.7777540e-02 5.7885915e-01 4.4200001e+01 
5.3622175e-02 5.1732427e-01 4.4200001e+01 
-3.2639861e-01 9.2031354e-01 4.3529953e+01 
-3.9894739e-01 8.5844576e-01 4.3528313e+01 
-1.9876897e-01 8.4634024e-01 4.3565521e+01 
-1.0087753e-01 7.7184403e-01 4.3627972e+01 
-2.8357074e-01 7.2742778e-01 4.3545506e+01 
-1.8323407e-01 6.4902818e-01 4.3610458e+01 
-4.3632931e-01 9.6407109e-01 4.3467831e+01 
3.1033519e-03 6.6751039e-01 4.3691772e+01 
-5.3600248e-02 5.6906003e-01 4.3676846e+01 
1.2436585e-01 5.5082864e-01 4.3886215e+01 
1.7079005e-01 5.1095647e-01 4.4054855e+01 
1.4951277e-01 4.6697062e-01 4.4053665e+01 
1.0028158e-01 4.8915190e-01 4.3877911e+01 
-4.0513036e-01 8.6722642e-01 4.3405304e+01 
-3.2530096e-01 9.2064321e-01 4.3405800e+01 
-9.6616447e-02 7.7055699e-01 4.3495411e+01 
-8.4563000e-03 6.8258613e-01 4.3574005e+01 
-1.9579062e-01 8.4624058e-01 4.3431831e+01 
2.1753120e-01 4.7335833e-01 4.4200001e+01 
2.0360756e-01 4.4289169e-01 4.4200001e+01 
-1.8021962e-01 6.4559317e-01 4.3473904e+01 
-7.0636064e-02 5.7773441e-01 4.3555408e+01 
-2.8212959e-01 7.2517604e-01 4.3407806e+01 
-4.3632865e-01 9.6406716e-01 4.3343307e+01 
1.3810426e-01 5.4143524e-01 4.3628246e+01 
-3.2419339e-01 9.2096806e-01 4.3280907e+01 
-3.9903235e-01 8.5775709e-01 4.3279266e+01 
-9.2257597e-02 7.6921552e-01 4.3360443e+01 
1.1508528e-01 4.7804743e-01 4.3612068e+01 
-1.9276154e-01 8.4613472e-01 4.3295704e+01 
1.4013666e-02 6.6131532e-01 4.3426643e+01 
-1.7712323e-01 6.4207786e-01 4.3334946e+01 
-2.8066361e-01 7.2288430e-01 4.3267666e+01 
-4.3382257e-02 5.5983055e-01 4.3403778e+01 
-4.3632799e-01 9.6406323e-01 4.3218033e+01 
3.7877345e-01 3.8273901e-01 4.4200001e+01 
3.9076596e-01 3.7443376e-01 4.3993755e+01 
-3.2307580e-01 9.2128778e-01 4.3155251e+01 
-3.9906058e-01 8.5738426e-01 4.3153610e+01 
-8.7798268e-02 7.6781619e-01 4.3222996e+01 
1.9689407e-02 6.5803534e-01 4.3290459e+01 
-6.0862999e-02 5.6866169e-01 4.3278019e+01 
-1.8968078e-01 8.4602165e-01 4.3157055e+01 
-1.7394182e-01 6.3847917e-01 4.3193501e+01 
-4.3632734e-01 9.6405929e-01 4.3091995e+01 
4.0275589e-01 3.6612594e-01 4.3787510e+01 
1.2304078e-01 5.5709994e-01 4.3330139e+01 
-2.7917209e-01 7.2055119e-01 4.3125000e+01 
2.5336364e-01 4.4907436e-01 4.3468094e+01 
2.3670304e-01 4.1684708e-01 4.3469433e+01 
1.3086085e-01 4.6634668e-01 4.3336948e+01 
-3.8351217e-01 8.3473074e-01 4.3036392e+01 
-3.2194808e-01 9.2160189e-01 4.3028820e+01 
2.5518833e-02 6.5462554e-01 4.3151749e+01 
-8.3235659e-02 7.6635528e-01 4.3082981e+01 
4.1474071e-01 3.5781288e-01 4.3581264e+01 
-1.8654740e-01 8.4590012e-01 4.3015797e+01 
-3.2522827e-02 5.5011308e-01 4.3120937e+01 
-1.7067213e-01 6.3479382e-01 4.3049488e+01 
-4.3632668e-01 9.6405542e-01 4.2965172e+01 
-2.7765438e-01 7.1817529e-01 4.2979721e+01 
2.6620242e-01 4.4011977e-01 4.3261948e+01 
1.3584816e-02 6.7044950e-01 4.3025066e+01 
-3.2081014e-01 9.2191011e-01 4.2901604e+01 
-3.8160574e-01 8.3169121e-01 4.2902863e+01 
-7.8566879e-02 7.6482886e-01 4.2940315e+01 
-5.0480481e-02 5.5910730e-01 4.2990566e+01 
4.2671782e-01 3.4949207e-01 4.3375019e+01 
1.6821145e-01 5.2049083e-01 4.3083881e+01 
-1.8336046e-01 8.4576881e-01 4.2871841e+01 
-4.3632606e-01 9.6405160e-01 4.2837555e+01 
-1.6731077e-01 6.3101834e-01 4.2902817e+01 
1.4768846e-01 4.5400122e-01 4.3051926e+01 
-2.7610970e-01 7.1575516e-01 4.2831745e+01 
-3.1966189e-01 9.2221189e-01 4.2773579e+01 
-3.8560396e-01 8.3684862e-01 4.2767078e+01 
3.7660085e-02 6.4738947e-01 4.2866421e+01 
-7.3788933e-02 7.6323271e-01 4.2794899e+01 
4.3868470e-01 3.4116083e-01 4.3168777e+01 
-4.3632543e-01 9.6404779e-01 4.2709122e+01 
-2.0968946e-02 5.3986710e-01 4.2827656e+01 
-1.8011902e-01 8.4562629e-01 4.2725094e+01 
-1.6385415e-01 6.2714905e-01 4.2753403e+01 
-2.7453732e-01 7.1328926e-01 4.2680973e+01 
-3.1850323e-01 9.2250693e-01 4.2644733e+01 
-3.9907700e-01 8.5570478e-01 4.2643101e+01 
2.5504474e-02 6.6361672e-01 4.2734810e+01 
1.8471870e-01 5.0880390e-01 4.2796177e+01 
-6.8898737e-02 7.6156229e-01 4.2646645e+01 
-3.9438177e-02 5.4903054e-01 4.2692345e+01 
-4.3632481e-01 9.6404403e-01 4.2579861e+01 
4.5063871e-01 3.3281663e-01 4.2962532e+01 
1.6565691e-01 4.4095638e-01 4.2756321e+01 
-1.7682223e-01 8.4547096e-01 4.2575459e+01 
-1.6029853e-01 6.2318206e-01 4.2601143e+01 
-4.0415615e-01 8.6278629e-01 4.2516582e+01 
-3.1733403e-01 9.2279470e-01 4.2515053e+01 
-2.7293649e-01 7.1077597e-01 4.2527313e+01 
5.0482783e-02 6.3954860e-01 4.2569923e+01 
-4.3632418e-01 9.6404034e-01 4.2449757e+01 
-6.3893095e-02 7.5981271e-01 4.2495445e+01 
-8.6617703e-03 5.2904755e-01 4.2523201e+01 
-1.7346917e-01 8.4530097e-01 4.2422829e+01 
-1.5663996e-01 6.1911333e-01 4.2445942e+01 
3.0435190e-01 4.1341871e-01 4.2643494e+01 
4.6257737e-01 3.2445681e-01 4.2756287e+01 
-3.1615424e-01 9.2307472e-01 4.2384518e+01 
-3.9902648e-01 8.5475212e-01 4.2382885e+01 
-2.7130640e-01 7.0821363e-01 4.2370659e+01 
3.8079392e-02 6.5619886e-01 4.2433029e+01 
2.0230262e-01 4.9620378e-01 4.2497147e+01 
-4.3632355e-01 9.6403670e-01 4.2318787e+01 
-5.8768708e-02 7.5797862e-01 4.2341198e+01 
-2.7680276e-02 5.3838593e-01 4.2382599e+01 
1.8486446e-01 4.2715022e-01 4.2449394e+01 
-3.8436696e-01 8.3356136e-01 4.2264896e+01 
8.9545198e-02 5.3233254e-01 4.2382050e+01 
-3.3225983e-01 9.3122375e-01 4.2255634e+01 
-1.7005907e-01 8.4511453e-01 4.2267101e+01 
-1.5287429e-01 6.1493850e-01 4.2287693e+01 
4.7449806e-01 3.1607881e-01 4.2550037e+01 
-2.6964626e-01 7.0560038e-01 4.2210907e+01 
-4.3632296e-01 9.6403313e-01 4.2186939e+01 
6.4036883e-02 6.3103610e-01 4.2261456e+01 
-5.3522192e-02 7.5605446e-01 4.2183796e+01 
-3.7873057e-01 8.2541841e-01 4.2124020e+01 
-3.1376252e-01 9.2360973e-01 4.2120819e+01 
4.4639236e-03 5.1760370e-01 4.2206776e+01 
-1.6659111e-01 8.4490943e-01 4.2108162e+01 
-1.4899719e-01 6.1065292e-01 4.2126286e+01 
-4.3632239e-01 9.6402961e-01 4.2054195e+01 
4.8639825e-01 3.0768004e-01 4.2343792e+01 
-2.6795524e-01 7.0293444e-01 4.2047943e+01 
2.4746621e-01 4.6040925e-01 4.2191032e+01 
7.1105182e-02 6.2650448e-01 4.2102463e+01 
-3.1255043e-01 9.2386365e-01 4.1987617e+01 
-4.8150036e-02 7.5403398e-01 4.2023121e+01 
-1.5144684e-02 5.2712250e-01 4.2060505e+01 
-3.7995064e-01 8.2661813e-01 4.1980038e+01 
2.0541981e-01 4.1251117e-01 4.2130333e+01 
-1.6306458e-01 8.4468329e-01 4.1945896e+01 
-4.3632182e-01 9.6402621e-01 4.1920536e+01 
-1.4500406e-01 6.0625184e-01 4.1961609e+01 
1.3375351e-01 5.6370503e-01 4.1969833e+01 
-2.6623246e-01 7.0021385e-01 4.1881653e+01 
-3.1132740e-01 9.2410773e-01 4.1853493e+01 
-3.9880505e-01 8.5261923e-01 4.1851868e+01 
4.9827534e-01 2.9925787e-01 4.2137547e+01 
3.4194937e-01 3.8685825e-01 4.2025021e+01 
-4.2648647e-02 7.5191063e-01 4.1859051e+01 
-2.5401810e-01 7.9503769e-01 4.1808533e+01 
1.8480448e-02 5.0547802e-01 4.1877510e+01 
-4.3632126e-01 9.6402287e-01 4.1785946e+01 
-1.5947884e-01 8.4443361e-01 4.1780174e+01 
-1.4089009e-01 6.0172999e-01 4.1793541e+01 
-3.1009343e-01 9.2434150e-01 4.1718426e+01 
-4.0306881e-01 8.5845691e-01 4.1716179e+01 
8.5861288e-02 6.1683756e-01 4.1774368e+01 
-2.6447710e-01 6.9743657e-01 4.1711910e+01 
3.0427080e-01 4.1638452e-01 4.1839512e+01 
2.6751360e-01 3.7833902e-01 4.1830902e+01 
5.1012677e-01 2.9080975e-01 4.1931297e+01 
-3.7014309e-02 7.4967718e-01 4.1691463e+01 
-4.3632072e-01 9.6401966e-01 4.1650398e+01 
2.5847588e-02 4.9913955e-01 4.1707767e+01 
-1.5583332e-01 8.4415752e-01 4.1610870e+01 
-3.8322043e-01 8.2981020e-01 4.1595791e+01 
-3.0884841e-01 9.2456430e-01 4.1582397e+01 
-1.3665022e-01 5.9708190e-01 4.1621960e+01 
9.3565010e-02 6.1167872e-01 4.1605015e+01 
-2.6268822e-01 6.9460052e-01 4.1538593e+01 
-4.3632022e-01 9.6401656e-01 4.1513885e+01 
-3.1243213e-02 7.4732590e-01 4.1520226e+01 
2.7603787e-01 3.7115356e-01 4.1624012e+01 
2.8505871e-01 4.3281260e-01 4.1611507e+01 
5.2195001e-01 2.8233302e-01 4.1725052e+01 
3.3468332e-02 4.9260557e-01 4.1534447e+01 
-3.9853087e-01 8.5081697e-01 4.1443768e+01 
-3.2560509e-01 9.3245691e-01 4.1443577e+01 
-1.5212752e-01 8.4385180e-01 4.1437847e+01 
-1.3227913e-01 5.9230179e-01 4.1446728e+01 
-4.3631971e-01 9.6401358e-01 4.1376381e+01 
[...]
POINT_DATA 6166
FIELD FieldData 5
DISPLACEMENT 3 6166  float
5.7599294e-01 5.2423763e-01 -1.1497421e-02 
5.7277113e-01 5.2099627e-01 -1.1410501e-02 
5.7602859e-01 5.2434558e-01 -1.3195825e-02 
5.7615924e-01 5.2432173e-01 -9.5427986e-03 
5.7118684e-01 5.1947105e-01 -1.2984445e-02 
5.7145816e-01 5.1959115e-01 -9.3928361e-03 
5.6953150e-01 5.1773691e-01 -1.1323087e-02 
5.7608843e-01 5.2445388e-01 -1.4329549e-02 
5.7627916e-01 5.2443314e-01 -9.3282741e-03 
5.7280439e-01 5.2115291e-01 -1.4312283e-02 
5.7289159e-01 5.2102411e-01 -9.2167631e-03 
5.6793725e-01 5.1620328e-01 -1.2934545e-02 
5.6784773e-01 5.1595950e-01 -9.3104392e-03 
5.6946474e-01 5.1779604e-01 -1.4294672e-02 
5.6627369e-01 5.1445937e-01 -1.1235172e-02 
5.7616109e-01 5.2455467e-01 -1.4981644e-02 
5.6944829e-01 5.1755917e-01 -9.1034481e-03 
5.7635838e-01 5.2453601e-01 -9.8748384e-03 
5.7112533e-01 5.1949269e-01 -1.4949763e-02 
5.7117939e-01 5.1932406e-01 -9.6996417e-03 
5.6466943e-01 5.1291722e-01 -1.2884261e-02 
5.6452864e-01 5.1262063e-01 -9.2290714e-03 
5.6606776e-01 5.1438153e-01 -1.4276653e-02 
5.6594765e-01 5.1403642e-01 -8.9883003e-03 
5.6299752e-01 5.1116335e-01 -1.1146749e-02 
5.6775671e-01 5.1610672e-01 -1.4934961e-02 
5.7626534e-01 5.2466279e-01 -1.5059656e-02 
5.6770760e-01 5.1583076e-01 -9.5942905e-03 
5.7642490e-01 5.2465141e-01 -1.1017401e-02 
5.6138295e-01 5.0961238e-01 -1.2833570e-02 
5.6145626e-01 5.0953501e-01 -9.2712324e-03 
5.6261164e-01 5.1090753e-01 -1.4258165e-02 
5.6951982e-01 5.1788098e-01 -1.4992180e-02 
5.6432986e-01 5.1266223e-01 -1.4919757e-02 
5.6238782e-01 5.1045424e-01 -8.8712852e-03 
5.6949538e-01 5.1768357e-01 -1.0918691e-02 
5.7248789e-01 5.2086306e-01 -1.4974691e-02 
5.6417745e-01 5.1227880e-01 -9.4875051e-03 
5.5970258e-01 5.0784850e-01 -1.1057812e-02 
5.7258868e-01 5.2082330e-01 -1.1653796e-02 
5.6645638e-01 5.1480275e-01 -1.5000761e-02 
5.6634510e-01 5.1450503e-01 -1.0617859e-02 
5.7638192e-01 5.2478522e-01 -1.5181575e-02 
5.7648647e-01 5.2478099e-01 -1.2609811e-02 
5.5807763e-01 5.0628871e-01 -1.2782453e-02 
5.5815220e-01 5.0621068e-01 -9.1722803e-03 
5.5909449e-01 5.0737226e-01 -1.4239155e-02 
5.6084293e-01 5.0915736e-01 -1.4904023e-02 
5.5876702e-01 5.0681072e-01 -8.7523134e-03 
5.6058717e-01 5.0866640e-01 -9.3791410e-03 
5.5638856e-01 5.0451458e-01 -1.0968241e-02 
5.6266987e-01 5.1099449e-01 -1.4930251e-02 
5.6243771e-01 5.1058412e-01 -1.0750161e-02 
5.6800777e-01 5.1636952e-01 -1.5181651e-02 
5.7256693e-01 5.2096379e-01 -1.5474963e-02 
5.7260871e-01 5.2093124e-01 -1.3719860e-02 
5.6788641e-01 5.1614952e-01 -1.2870057e-02 
5.5484831e-01 5.0289011e-01 -9.1542667e-03 
5.5475307e-01 5.0294572e-01 -1.2730840e-02 
5.5729401e-01 5.0559026e-01 -1.4887727e-02 
5.5949813e-01 5.0780743e-01 -1.4940915e-02 
5.5551451e-01 5.0377381e-01 -1.4219563e-02 
5.7649350e-01 5.2492464e-01 -1.5821008e-02 
5.7654423e-01 5.2492487e-01 -1.4627717e-02 
5.5693489e-01 5.0499183e-01 -9.2693642e-03 
5.5917913e-01 5.0729656e-01 -1.0439498e-02 
5.5508316e-01 5.0310403e-01 -8.6315051e-03 
5.5305523e-01 5.0116140e-01 -1.0878281e-02 
5.6110859e-01 5.0943309e-01 -1.5110929e-02 
5.5140901e-01 4.9958351e-01 -1.2678931e-02 
5.5148631e-01 4.9950439e-01 -8.9723794e-03 
5.5368131e-01 5.0195903e-01 -1.4870730e-02 
5.6077832e-01 5.0900245e-01 -1.2776327e-02 
5.5186963e-01 5.0011039e-01 -1.4199222e-02 
5.5557626e-01 5.0386292e-01 -1.4864414e-02 
5.5321878e-01 5.0125307e-01 -9.1580972e-03 
5.5133462e-01 4.9933222e-01 -8.5085444e-03 
5.5513597e-01 5.0323969e-01 -1.0579282e-02 
5.4970229e-01 4.9778855e-01 -1.0787682e-02 
5.7657146e-01 5.2508318e-01 -1.7705120e-02 
5.7105619e-01 5.1953810e-01 -1.7654222e-02 
5.4804522e-01 4.9620119e-01 -1.2626576e-02 
5.4812407e-01 4.9612176e-01 -8.8712955e-03 
5.5000275e-01 4.9826181e-01 -1.4852921e-02 
5.5193335e-01 5.0020063e-01 -1.4829649e-02 
5.5176240e-01 4.9983639e-01 -1.0258220e-02 
5.4815781e-01 4.9637985e-01 -1.4177981e-02 
5.4943687e-01 4.9744838e-01 -9.0453262e-03 
5.4632932e-01 4.9439591e-01 -1.0696555e-02 
5.6554079e-01 5.1399302e-01 -1.7603185e-02 
5.5310857e-01 5.0138497e-01 -1.4913014e-02 
5.4751915e-01 4.9549359e-01 -8.3836094e-03 
5.5691642e-01 5.0524080e-01 -1.5599716e-02 
5.5700636e-01 5.0527567e-01 -1.4286717e-02 
5.5342299e-01 5.0160730e-01 -1.2685909e-02 
5.4501545e-01 4.9298698e-01 -8.5945902e-03 
5.4466140e-01 4.9279913e-01 -1.2573417e-02 
5.4822356e-01 4.9647143e-01 -1.4793828e-02 
5.4625612e-01 4.9449649e-01 -1.4834307e-02 
5.6002557e-01 5.0844818e-01 -1.7551765e-02 
5.4437703e-01 4.9258018e-01 -1.4156249e-02 
5.4757488e-01 4.9563536e-01 -1.0406110e-02 
5.4558676e-01 4.9357557e-01 -8.9306682e-03 
5.4293627e-01 4.9098313e-01 -1.0604738e-02 
5.4363459e-01 4.9158561e-01 -8.2565956e-03 
5.5140549e-01 4.9970025e-01 -1.5553515e-02 
5.4481423e-01 4.9304631e-01 -1.4807867e-02 
5.4125708e-01 4.8937696e-01 -1.2519831e-02 
5.4144669e-01 4.8939660e-01 -8.4680542e-03 
5.4243934e-01 4.9066085e-01 -1.4814737e-02 
5.4407907e-01 4.9210927e-01 -1.0073681e-02 
5.5451065e-01 5.0290275e-01 -1.7499292e-02 
5.4655474e-01 4.9480137e-01 -1.4961084e-02 
5.4052490e-01 4.8870918e-01 -1.4133454e-02 
5.3952253e-01 4.8754993e-01 -1.0512220e-02 
5.4166669e-01 4.8963270e-01 -8.8147670e-03 
5.4580539e-01 4.9394965e-01 -1.2600276e-02 
5.3967869e-01 4.8760656e-01 -8.1274631e-03 
5.3783190e-01 4.8593408e-01 -1.2465731e-02 
5.3780866e-01 4.8573944e-01 -8.4025031e-03 
5.4059494e-01 4.8880357e-01 -1.4717939e-02 
5.3855026e-01 4.8675284e-01 -1.4794044e-02 
5.4899633e-01 4.9735874e-01 -1.7446661e-02 
5.3608793e-01 4.8409638e-01 -1.0419376e-02 
5.3973782e-01 4.8775488e-01 -1.0230403e-02 
5.3659934e-01 4.8476472e-01 -1.4109449e-02 
5.3767395e-01 4.8561734e-01 -8.6968234e-03 
5.3564960e-01 4.8355430e-01 -7.9963747e-03 
5.3438622e-01 4.8247075e-01 -1.2410801e-02 
5.3447080e-01 4.8238957e-01 -8.4599098e-03 
5.3705508e-01 4.8524788e-01 -1.4732928e-02 
5.3886741e-01 4.8707461e-01 -1.4881442e-02 
5.3458649e-01 4.8277020e-01 -1.4771933e-02 
5.3611177e-01 4.8409826e-01 -9.8858317e-03 
5.3263277e-01 4.8062244e-01 -1.0326205e-02 
5.4348397e-01 4.9181780e-01 -1.7393637e-02 
5.3790838e-01 4.8601246e-01 -1.2519044e-02 
5.3259808e-01 4.8074496e-01 -1.4084276e-02 
5.3360724e-01 4.8152798e-01 -8.5778739e-03 
5.3108025e-01 4.7898349e-01 -8.4239449e-03 
5.3091955e-01 4.7898743e-01 -1.2355736e-02 
5.3154516e-01 4.7942662e-01 -7.8627970e-03 
5.3267312e-01 4.8084223e-01 -1.4635334e-02 
5.2915633e-01 4.7712740e-01 -1.0232104e-02 
5.3054637e-01 4.7871152e-01 -1.4748354e-02 
5.3160799e-01 4.7958228e-01 -1.0053035e-02 
5.2851886e-01 4.7664729e-01 -1.4057774e-02 
5.2946424e-01 4.7736242e-01 -8.4565580e-03 
5.3488219e-01 4.8309329e-01 -1.5411111e-02 
5.3797394e-01 4.8628011e-01 -1.7339852e-02 
5.2743125e-01 4.7548184e-01 -1.2300169e-02 
5.2751875e-01 4.7539976e-01 -8.2506090e-03 
5.2736270e-01 4.7522154e-01 -7.7267550e-03 
5.2899480e-01 4.7714910e-01 -1.4651323e-02 
5.3088385e-01 4.7905207e-01 -1.4797815e-02 
5.2565819e-01 4.7361130e-01 -1.0137818e-02 
5.2642632e-01 4.7457322e-01 -1.4723870e-02 
5.2784383e-01 4.7578776e-01 -9.6954722e-03 
5.2971518e-01 4.7778073e-01 -1.2443267e-02 
5.2439392e-01 4.7225165e-01 -7.9909274e-03 
5.2779597e-01 4.7586283e-01 -1.2667691e-02 
5.2398378e-01 4.7200766e-01 -1.1994036e-02 
5.2435881e-01 4.7246903e-01 -1.4029894e-02 
5.2524114e-01 4.7311774e-01 -8.3342334e-03 
5.3246611e-01 4.8074424e-01 -1.7283995e-02 
5.2309960e-01 4.7093648e-01 -7.5890576e-03 
5.2213901e-01 4.7007459e-01 -1.0042845e-02 
5.2443868e-01 4.7256950e-01 -1.4545746e-02 
5.2222455e-01 4.7035319e-01 -1.4697381e-02 
5.2064347e-01 4.6848053e-01 -7.8233164e-03 
5.2039063e-01 4.6840852e-01 -1.2186073e-02 
5.2316558e-01 4.7109860e-01 -9.8735783e-03 
5.2011585e-01 4.6820816e-01 -1.4001016e-02 
5.2093607e-01 4.6879140e-01 -8.2093813e-03 
5.1859760e-01 4.6651602e-01 -9.9469060e-03 
5.2696079e-01 4.7521320e-01 -1.7227799e-02 
5.1875365e-01 4.6656880e-01 -7.4488581e-03 
5.2274150e-01 4.7087744e-01 -1.4824897e-02 
5.2019876e-01 4.6831033e-01 -1.4498180e-02 
5.1683688e-01 4.6483999e-01 -1.2128141e-02 
5.1793808e-01 4.6604905e-01 -1.4668792e-02 
5.1925409e-01 4.6715727e-01 -9.5023913e-03 
5.1680082e-01 4.6462038e-01 -7.7209561e-03 
5.2120578e-01 4.6923408e-01 -1.2373221e-02 
5.1578701e-01 4.6386203e-01 -1.3970041e-02 
5.1503336e-01 4.6293560e-01 -9.8500513e-03 
5.1654714e-01 4.6438217e-01 -8.0838408e-03 
5.1672876e-01 4.6482357e-01 -1.4393451e-02 
5.1432234e-01 4.6211699e-01 -7.3066754e-03 
5.1326078e-01 4.6124965e-01 -1.2069095e-02 
5.1335341e-01 4.6116596e-01 -7.8238100e-03 
5.2146107e-01 4.6968952e-01 -1.7170625e-02 
5.1838392e-01 4.6652070e-01 -1.5258138e-02 
5.1356506e-01 4.6165901e-01 -1.4638013e-02 
5.1223111e-01 4.6013534e-01 -1.0115516e-02 
5.1439172e-01 4.6228617e-01 -9.6928179e-03 
5.1144767e-01 4.5933509e-01 -9.7529413e-03 
5.1137054e-01 4.5942974e-01 -1.3935553e-02 
5.1207244e-01 4.5988786e-01 -7.9577966e-03 
5.0966287e-01 4.5763826e-01 -1.2009477e-02 
5.0973278e-01 4.5753309e-01 -7.7714920e-03 
5.1145834e-01 4.5953459e-01 -1.4393340e-02 
5.0980359e-01 4.5757943e-01 -7.1628937e-03 
5.1340532e-01 4.6150964e-01 -1.4909770e-02 
5.1324385e-01 4.6126547e-01 -1.2904978e-02 
5.1596320e-01 4.6416727e-01 -1.7110638e-02 
5.0910360e-01 4.5718163e-01 -1.4604499e-02 
5.0783968e-01 4.5571345e-01 -9.6563036e-03 
5.0987530e-01 4.5775259e-01 -9.6029751e-03 
5.0686413e-01 4.5490804e-01 -1.3899549e-02 
5.0656372e-01 4.5434263e-01 -7.4528167e-03 
5.0604409e-01 4.5400697e-01 -1.1948210e-02 
5.0750822e-01 4.5530620e-01 -7.8281611e-03 
5.0695515e-01 4.5501506e-01 -1.4338430e-02 
5.0519586e-01 4.5295355e-01 -7.0161684e-03 
5.0421149e-01 4.5207095e-01 -9.5589682e-03 
5.0454944e-01 4.5261335e-01 -1.4568610e-02 
5.0773960e-01 4.5573989e-01 -1.2793906e-02 
5.0731486e-01 4.5538998e-01 -1.4671703e-02 
5.1047182e-01 4.5865420e-01 -1.7049456e-02 
5.0526875e-01 4.5313025e-01 -9.5124589e-03 
5.0249964e-01 4.5026946e-01 -7.4992348e-03 
5.0235045e-01 4.5028934e-01 -1.1611857e-02 
5.0226367e-01 4.5029500e-01 -1.3862099e-02 
5.0285357e-01 4.5063549e-01 -7.6983422e-03 
5.0055927e-01 4.4840655e-01 -9.4598532e-03 
5.0306290e-01 4.5110840e-01 -1.4230851e-02 
5.0049514e-01 4.4823685e-01 -6.8679969e-03 
4.9990132e-01 4.4795254e-01 -1.4530262e-02 
4.9873859e-01 4.4667947e-01 -1.1825708e-02 
4.9883509e-01 4.4659421e-01 -7.3893536e-03 
5.0056982e-01 4.4841745e-01 -9.4220256e-03 
5.0251192e-01 4.5050183e-01 -1.2866044e-02 
5.0498843e-01 4.5315158e-01 -1.6986640e-02 
4.9756810e-01 4.4558743e-01 -1.3822052e-02 
5.0159514e-01 4.4965896e-01 -1.4750133e-02 
4.9688378e-01 4.4472098e-01 -9.3589751e-03 
4.9810475e-01 4.4587252e-01 -7.5668772e-03 
4.9824467e-01 4.4627693e-01 -1.4158185e-02 
4.9505031e-01 4.4298324e-01 -1.1762344e-02 
4.9514812e-01 4.4289878e-01 -7.2787902e-03 
4.9569899e-01 4.4342676e-01 -6.7170183e-03 
4.9515545e-01 4.4319576e-01 -1.4489430e-02 
4.9577561e-01 4.4361165e-01 -9.3314238e-03 
4.9318531e-01 4.4101438e-01 -9.2591261e-03 
4.9725869e-01 4.4522744e-01 -1.2595455e-02 
4.9951372e-01 4.4766033e-01 -1.6921116e-02 
4.9277276e-01 4.4078276e-01 -1.3779406e-02 
4.9325854e-01 4.4101465e-01 -7.4336966e-03 
4.9628943e-01 4.4434187e-01 -1.4730864e-02 
4.9133947e-01 4.3926480e-01 -1.1697980e-02 
4.9143904e-01 4.3918106e-01 -7.1681822e-03 
4.9320626e-01 4.4122759e-01 -1.4091318e-02 
4.9080363e-01 4.3852070e-01 -6.5635587e-03 
4.8946413e-01 4.3728524e-01 -9.1597019e-03 
4.9030802e-01 4.3834040e-01 -1.4445621e-02 
4.9088222e-01 4.3870917e-01 -9.2408434e-03 
4.8760656e-01 4.3552613e-01 -1.1633157e-02 
4.8770669e-01 4.3544033e-01 -7.0558619e-03 
4.8787412e-01 4.3587807e-01 -1.3734731e-02 
4.9404871e-01 4.4218117e-01 -1.6853297e-02 
4.8831165e-01 4.3605921e-01 -7.2989077e-03 
4.9105957e-01 4.3900815e-01 -1.2308745e-02 
4.9102703e-01 4.3907097e-01 -1.4719375e-02 
4.8571941e-01 4.3353415e-01 -9.0575181e-03 
4.8808244e-01 4.3609539e-01 -1.4020785e-02 
4.8580611e-01 4.3351549e-01 -6.4087515e-03 
4.8535672e-01 4.3338364e-01 -1.4397882e-02 
4.8666140e-01 4.3449673e-01 -9.5138233e-03 
4.8384786e-01 4.3176401e-01 -1.1567649e-02 
4.8395091e-01 4.3168101e-01 -6.9462135e-03 
4.8286995e-01 4.3087023e-01 -1.3685941e-02 
4.8859188e-01 4.3671325e-01 -1.6787529e-02 
4.8195115e-01 4.2976400e-01 -8.9585390e-03 
4.8326242e-01 4.3100375e-01 -7.1624764e-03 
4.8567450e-01 4.3370998e-01 -1.4637312e-02 
4.8514125e-01 4.3309742e-01 -1.2627441e-02 
4.8292601e-01 4.3093330e-01 -1.3949706e-02 
4.8006761e-01 4.2798275e-01 -1.1503013e-02 
4.8017019e-01 4.2789859e-01 -6.8347808e-03 
4.8070544e-01 4.2840943e-01 -6.2497817e-03 
4.8029861e-01 4.2832306e-01 -1.4346276e-02 
4.8157853e-01 4.2941907e-01 -9.6580647e-03 
4.7815824e-01 4.2596900e-01 -8.8577764e-03 
4.7775957e-01 4.2575839e-01 -1.3633550e-02 
4.7771043e-01 4.2553881e-01 -9.3184914e-03 
4.8314607e-01 4.3126160e-01 -1.6719015e-02 
4.7810724e-01 4.2584583e-01 -7.0245559e-03 
4.8036593e-01 4.2839319e-01 -1.4474758e-02 
4.7626305e-01 4.2417789e-01 -1.1433558e-02 
4.7636551e-01 4.2409131e-01 -6.7217262e-03 
4.7772262e-01 4.2572838e-01 -1.3884041e-02 
4.7974274e-01 4.2770213e-01 -1.2725810e-02 
4.7549605e-01 4.2319849e-01 -6.0902312e-03 
4.7434253e-01 4.2215186e-01 -8.7536471e-03 
4.7512996e-01 4.2315522e-01 -1.4291582e-02 
4.7629678e-01 4.2413902e-01 -9.5963338e-03 
4.7243291e-01 4.2034930e-01 -1.1366477e-02 
4.7253942e-01 4.2026567e-01 -6.6094846e-03 
4.7253218e-01 4.2053571e-01 -1.3576957e-02 
4.7770882e-01 4.2582092e-01 -1.6648898e-02 
4.7284231e-01 4.2058206e-01 -6.8854815e-03 
4.7504553e-01 4.2307189e-01 -1.4388311e-02 
4.7050142e-01 4.1831392e-01 -8.6521348e-03 
4.7245777e-01 4.2046648e-01 -1.3812367e-02 
4.7445309e-01 4.2242292e-01 -1.2890225e-02 
4.6986145e-01 4.1774431e-01 -1.0377404e-02 
4.7017503e-01 4.1788068e-01 -5.9255622e-03 
4.6984601e-01 4.1787660e-01 -1.4231933e-02 
4.6857950e-01 4.1650194e-01 -1.1298251e-02 
4.7084814e-01 4.1870049e-01 -9.6381903e-03 
4.6825176e-01 4.1597456e-01 -6.2917187e-03 
4.6719092e-01 4.1520172e-01 -1.3518297e-02 
4.6663490e-01 4.1445273e-01 -8.5484963e-03 
4.7228605e-01 4.2040071e-01 -1.6575715e-02 
4.6750697e-01 4.1526404e-01 -7.0277699e-03 
4.6953297e-01 4.1756251e-01 -1.4240184e-02 
4.6727398e-01 4.1528955e-01 -1.3771694e-02 
4.6934727e-01 4.1734198e-01 -1.3314920e-02 
4.6471274e-01 4.1264185e-01 -1.1212134e-02 
4.6482012e-01 4.1255680e-01 -6.3880170e-03 
4.6473882e-01 4.1245109e-01 -5.7597784e-03 
4.6446761e-01 4.1250801e-01 -1.4167264e-02 
4.6277133e-01 4.1059545e-01 -8.4463349e-03 
4.6434343e-01 4.1220844e-01 -9.5851794e-03 
4.6177396e-01 4.0979758e-01 -1.3456200e-02 
4.6688023e-01 4.1500226e-01 -1.6497664e-02 
4.6086028e-01 4.0879518e-01 -1.1114306e-02 
4.6096948e-01 4.0871260e-01 -6.2875301e-03 
4.6204066e-01 4.0979424e-01 -6.5601286e-03 
4.6394885e-01 4.1195336e-01 -1.3241493e-02 
4.6295324e-01 4.1099608e-01 -1.4170093e-02 
4.6093729e-01 4.0896752e-01 -1.3672544e-02 
4.5893294e-01 4.0676486e-01 -8.3461693e-03 
4.5932618e-01 4.0704879e-01 -5.5924458e-03 
4.5909369e-01 4.0714774e-01 -1.4106104e-02 
4.5924971e-01 4.0708965e-01 -8.5083442e-03 
4.5703566e-01 4.0497962e-01 -1.1014366e-02 
4.5696485e-01 4.0470836e-01 -5.9650205e-03 
4.5644462e-01 4.0448242e-01 -1.3392849e-02 
4.6148542e-01 4.0961891e-01 -1.6418826e-02 
4.5666516e-01 4.0443122e-01 -6.3691251e-03 
4.5512089e-01 4.0296295e-01 -8.2444223e-03 
4.5638812e-01 4.0443128e-01 -1.3639420e-02 
4.5804974e-01 4.0601793e-01 -1.1779826e-02 
4.5850083e-01 4.0657511e-01 -1.4570744e-02 
4.5616111e-01 4.0420550e-01 -1.3636190e-02 
4.5399246e-01 4.0172997e-01 -5.4320288e-03 
4.5323417e-01 4.0118963e-01 -1.0914012e-02 
4.5334417e-01 4.0110859e-01 -6.0898163e-03 
4.5380691e-01 4.0187535e-01 -1.4041219e-02 
4.5391622e-01 4.0176740e-01 -8.2651218e-03 
4.5133498e-01 3.9919117e-01 -8.1452029e-03 
4.5120162e-01 3.9925668e-01 -1.3325105e-02 
4.5610401e-01 4.0425417e-01 -1.6344296e-02 
4.5137066e-01 3.9915261e-01 -6.1838543e-03 
4.5004657e-01 3.9781290e-01 -5.7224641e-03 
4.4946301e-01 3.9743200e-01 -1.0812071e-02 
4.5114428e-01 3.9920384e-01 -1.3579732e-02 
4.5312738e-01 4.0121770e-01 -1.4495651e-02 
4.5318338e-01 4.0121931e-01 -1.3091443e-02 
4.4873893e-01 3.9649469e-01 -5.2747154e-03 
4.5107207e-01 3.9902174e-01 -1.0628325e-02 
4.4860485e-01 3.9669356e-01 -1.3973931e-02 
4.4757822e-01 3.9544702e-01 -8.0453483e-03 
4.5004737e-01 3.9811054e-01 -1.3541117e-02 
4.4866365e-01 3.9653045e-01 -8.0292812e-03 
4.4571590e-01 3.9369828e-01 -1.0712386e-02 
4.4604170e-01 3.9412010e-01 -1.3257686e-02 
4.5072740e-01 3.9889309e-01 -1.6259748e-02 
4.4615567e-01 3.9395788e-01 -6.0035535e-03 
4.4519952e-01 3.9298359e-01 -5.5381563e-03 
4.4598553e-01 3.9406845e-01 -1.3519260e-02 
4.4384247e-01 3.9173007e-01 -7.9479059e-03 
4.4776091e-01 3.9586785e-01 -1.4418554e-02 
4.4781503e-01 3.9586839e-01 -1.3014785e-02 
4.4356322e-01 3.9134371e-01 -5.1202015e-03 
4.4348627e-01 3.9160040e-01 -1.3905106e-02 
4.4199362e-01 3.8999537e-01 -1.0609264e-02 
4.4210449e-01 3.8991669e-01 -5.8015413e-03 
4.4481799e-01 3.9278099e-01 -1.0117324e-02 
4.4469899e-01 3.9278498e-01 -1.3451198e-02 
4.4349048e-01 3.9137825e-01 -7.8003551e-03 
4.4151056e-01 3.8940990e-01 -7.8972820e-03 
4.4096613e-01 3.8907257e-01 -1.3187179e-02 
4.4013578e-01 3.8804275e-01 -7.8514526e-03 
4.4536600e-01 3.9355054e-01 -1.6174052e-02 
4.4032294e-01 3.8812217e-01 -5.1063388e-03 
4.4101974e-01 3.8884652e-01 -5.8287671e-03 
4.4091073e-01 3.8902059e-01 -1.3458007e-02 
4.4241372e-01 3.9054653e-01 -1.4337816e-02 
4.4246557e-01 3.9054608e-01 -1.2936582e-02 
4.3830061e-01 3.8632452e-01 -1.0506238e-02 
4.3840742e-01 3.8624233e-01 -5.7090954e-03 
4.3834072e-01 3.8630641e-01 -9.0761855e-03 
4.3846339e-01 3.8627288e-01 -4.9728998e-03 
4.3850878e-01 3.8650009e-01 -9.7640287e-03 
4.3845379e-01 3.8659564e-01 -1.3832039e-02 
4.3948308e-01 3.8747963e-01 -1.0047864e-02 
4.3936896e-01 3.8748497e-01 -1.3358600e-02 
4.3839714e-01 3.8631043e-01 -7.5811860e-03 
4.3645722e-01 3.8438684e-01 -7.7526649e-03 
4.3664092e-01 3.8446406e-01 -5.0148349e-03 
4.3597332e-01 3.8411066e-01 -1.3110051e-02 
4.3509540e-01 3.8295934e-01 -5.8035864e-03 
4.3595716e-01 3.8381529e-01 -5.6570703e-03 
4.4002366e-01 3.8823619e-01 -1.6085505e-02 
4.3526801e-01 3.8320661e-01 -7.7628642e-03 
4.3463427e-01 3.8267991e-01 -1.0402909e-02 
4.3592158e-01 3.8406432e-01 -1.3398614e-02 
4.3708518e-01 3.8525200e-01 -1.4254953e-02 
4.3713507e-01 3.8525054e-01 -1.2856369e-02 
4.3280613e-01 3.8076168e-01 -7.6591801e-03 
4.3344274e-01 3.8128713e-01 -4.8273569e-03 
4.3349668e-01 3.8167369e-01 -1.3757081e-02 
4.3337849e-01 3.8132292e-01 -7.3597902e-03 
4.3416610e-01 3.8219851e-01 -9.9820774e-03 
4.3405652e-01 3.8220820e-01 -1.3268105e-02 
4.3099648e-01 3.7906808e-01 -1.0302219e-02 
4.3144923e-01 3.7942520e-01 -7.8719370e-03 
4.3110189e-01 3.7899020e-01 -5.5292943e-03 
4.3105882e-01 3.7923169e-01 -1.3036330e-02 
4.3097243e-01 3.7886426e-01 -5.4908986e-03 
4.3470162e-01 3.8294819e-01 -1.5993251e-02 
4.3100899e-01 3.7918717e-01 -1.3333317e-02 
4.2918077e-01 3.7716454e-01 -7.5627943e-03 
4.2936119e-01 3.7723854e-01 -4.8257285e-03 
4.2860624e-01 3.7667692e-01 -9.7954990e-03 
4.2862475e-01 3.7683764e-01 -1.3680687e-02 
4.2849457e-01 3.7637648e-01 -4.6859821e-03 
4.3177694e-01 3.7998059e-01 -1.4168953e-02 
4.3182504e-01 3.7997779e-01 -1.2772770e-02 
4.2794415e-01 3.7594634e-01 -7.7691041e-03 
4.2767838e-01 3.7573874e-01 -9.2161261e-03 
4.2738134e-01 3.7548232e-01 -1.0200110e-02 
4.2748806e-01 3.7540725e-01 -5.4388717e-03 
4.2843249e-01 3.7641263e-01 -7.1488228e-03 
4.2886567e-01 3.7694189e-01 -9.9090934e-03 
4.2876017e-01 3.7695310e-01 -1.3173292e-02 
4.2622498e-01 3.7443736e-01 -1.2958230e-02 
4.2558017e-01 3.7359667e-01 -7.4693202e-03 
4.2575991e-01 3.7367019e-01 -4.7353348e-03 
4.2606452e-01 3.7399900e-01 -5.3312187e-03 
4.2617303e-01 3.7439123e-01 -1.3272671e-02 
4.2939773e-01 3.7768236e-01 -1.5898030e-02 
4.2379251e-01 3.7192559e-01 -1.0098582e-02 
4.2390141e-01 3.7185344e-01 -5.3498922e-03 
4.2371565e-01 3.7180051e-01 -8.8584684e-03 
4.2382845e-01 3.7208429e-01 -1.3602742e-02 
4.2361894e-01 3.7154514e-01 -4.5435280e-03 
4.2648390e-01 3.7472957e-01 -1.4080189e-02 
4.2653057e-01 3.7472585e-01 -1.2686945e-02 
4.2200503e-01 3.7005526e-01 -7.3798592e-03 