# vtk DataFile Version 4.0
vtk output
ASCII
DATASET UNSTRUCTURED_GRID
POINTS 6166 float
-4.3633327e-01 9.6409470e-01 4.4200001e+01 
-4.3633261e-01 9.6409082e-01 4.4079685e+01 
-3.2145375e-01 9.1276109e-01 4.4200001e+01 
-3.8566181e-01 8.4097892e-01 4.4200001e+01 
-3.3069235e-01 9.1895354e-01 4.4019413e+01 
-3.8473952e-01 8.3919770e-01 4.4024357e+01 
-4.3633196e-01 9.6408689e-01 4.3958702e+01 
-2.1293370e-01 8.4677851e-01 4.4200001e+01 
-2.9042658e-01 7.3813015e-01 4.4200001e+01 
-2.1019450e-01 8.4669626e-01 4.4077393e+01 
-2.8909999e-01 7.3605996e-01 4.4073399e+01 
-3.2963324e-01 9.1929907e-01 4.3898094e+01 
-3.8679782e-01 8.4179753e-01 4.3889645e+01 
-2.0740938e-01 8.4661204e-01 4.3952713e+01 
-4.3633130e-01 9.6408290e-01 4.3837040e+01 
-1.1677200e-01 7.7521002e-01 4.4200001e+01 
-2.8775173e-01 7.3395580e-01 4.3944717e+01 
-1.9365783e-01 6.6203654e-01 4.4200001e+01 
-1.1309985e-01 7.7540898e-01 4.4012005e+01 
-1.9181472e-01 6.5888047e-01 4.4006447e+01 
-3.2856464e-01 9.1964108e-01 4.3776085e+01 
-3.8823184e-01 8.4352189e-01 4.3765770e+01 
-2.0457739e-01 8.4652513e-01 4.3825886e+01 
-2.8638119e-01 7.3181647e-01 4.3813885e+01 
-4.3633065e-01 9.6407896e-01 4.3714680e+01 
-1.0911675e-01 7.7426714e-01 4.3886200e+01 
-2.1001574e-02 6.8269837e-01 4.4200001e+01 
-1.8902887e-01 6.5566909e-01 4.3876659e+01 
-7.8887597e-02 5.9015810e-01 4.4200001e+01 
-3.2748649e-01 9.1997939e-01 4.3653378e+01 
-3.9889076e-01 8.5876143e-01 4.3651733e+01 
-2.0169757e-01 8.4643483e-01 4.3696846e+01 
-7.2496021e-03 6.7325598e-01 4.3947758e+01 
-1.0504345e-01 7.7307969e-01 4.3758209e+01 
-2.8498772e-01 7.2964084e-01 4.3680840e+01 
-6.3224643e-02 5.7783771e-01 4.3940754e+01 
3.5808440e-02 6.2679136e-01 4.4056572e+01 
-1.8616955e-01 6.5238589e-01 4.3744686e+01 
-4.3632996e-01 9.6407503e-01 4.3591618e+01 
-9.8678423e-03 5.4892725e-01 4.4055367e+01 
-1.8652271e-02 6.8798620e-01 4.3834026e+01 
-7.9845116e-02 5.8636194e-01 4.3823372e+01 
8.7777540e-02 5.7885915e-01 4.4200001e+01 
5.3622175e-02 5.1732427e-01 4.4200001e+01 
-3.2639861e-01 9.2031354e-01 4.3529953e+01 
-3.9894739e-01 8.5844576e-01 4.3528313e+01 
-1.9876897e-01 8.4634024e-01 4.3565521e+01 
-1.0087753e-01 7.7184403e-01 4.3627972e+01 
-2.8357074e-01 7.2742778e-01 4.3545506e+01 
-1.8323407e-01 6.4902818e-01 4.3610458e+01 
-4.3632931e-01 9.6407109e-01 4.3467831e+01 
3.1033519e-03 6.6751039e-01 4.3691772e+01 
-5.3600248e-02 5.6906003e-01 4.3676846e+01 
1.2436585e-01 5.5082864e-01 4.3886215e+01 
1.7079005e-01 5.1095647e-01 4.4054855e+01 
1.4951277e-01 4.6697062e-01 4.4053665e+01 
1.0028158e-01 4.8915190e-01 4.3877911e+01 
-4.0513036e-01 8.6722642e-01 4.3405304e+01 
-3.2530096e-01 9.2064321e-01 4.3405800e+01 
-9.6616447e-02 7.7055699e-01 4.3495411e+01 
-8.4563000e-03 6.8258613e-01 4.3574005e+01 
-1.9579062e-01 8.4624058e-01 4.3431831e+01 
2.1753120e-01 4.7335833e-01 4.4200001e+01 
2.0360756e-01 4.4289169e-01 4.4200001e+01 
-1.8021962e-01 6.4559317e-01 4.3473904e+01 
-7.0636064e-02 5.7773441e-01 4.3555408e+01 
-2.8212959e-01 7.2517604e-01 4.3407806e+01 
-4.3632865e-01 9.6406716e-01 4.3343307e+01 
1.3810426e-01 5.4143524e-01 4.3628246e+01 
-3.2419339e-01 9.2096806e-01 4.3280907e+01 
-3.9903235e-01 8.5775709e-01 4.3279266e+01 
-9.2257597e-02 7.6921552e-01 4.3360443e+01 
1.1508528e-01 4.7804743e-01 4.3612068e+01 
-1.9276154e-01 8.4613472e-01 4.3295704e+01 
1.4013666e-02 6.6131532e-01 4.3426643e+01 
-1.7712323e-01 6.4207786e-01 4.3334946e+01 
-2.8066361e-01 7.2288430e-01 4.3267666e+01 
-4.3382257e-02 5.5983055e-01 4.3403778e+01 
-4.3632799e-01 9.6406323e-01 4.3218033e+01 
3.7877345e-01 3.8273901e-01 4.4200001e+01 
3.9076596e-01 3.7443376e-01 4.3993755e+01 
-3.2307580e-01 9.2128778e-01 4.3155251e+01 
-3.9906058e-01 8.5738426e-01 4.3153610e+01 
-8.7798268e-02 7.6781619e-01 4.3222996e+01 
1.9689407e-02 6.5803534e-01 4.3290459e+01 
-6.0862999e-02 5.6866169e-01 4.3278019e+01 
-1.8968078e-01 8.4602165e-01 4.3157055e+01 
-1.7394182e-01 6.3847917e-01 4.3193501e+01 
-4.3632734e-01 9.6405929e-01 4.3091995e+01 
4.0275589e-01 3.6612594e-01 4.3787510e+01 
1.2304078e-01 5.5709994e-01 4.3330139e+01 
-2.7917209e-01 7.2055119e-01 4.3125000e+01 
2.5336364e-01 4.4907436e-01 4.3468094e+01 
2.3670304e-01 4.1684708e-01 4.3469433e+01 
1.3086085e-01 4.6634668e-01 4.3336948e+01 
-3.8351217e-01 8.3473074e-01 4.3036392e+01 
-3.2194808e-01 9.2160189e-01 4.3028820e+01 
2.5518833e-02 6.5462554e-01 4.3151749e+01 
-8.3235659e-02 7.6635528e-01 4.3082981e+01 
4.1474071e-01 3.5781288e-01 4.3581264e+01 
-1.8654740e-01 8.4590012e-01 4.3015797e+01 
-3.2522827e-02 5.5011308e-01 4.3120937e+01 
-1.7067213e-01 6.3479382e-01 4.3049488e+01 
-4.3632668e-01 9.6405542e-01 4.2965172e+01 
-2.7765438e-01 7.1817529e-01 4.2979721e+01 
2.6620242e-01 4.4011977e-01 4.3261948e+01 
1.3584816e-02 6.7044950e-01 4.3025066e+01 
-3.2081014e-01 9.2191011e-01 4.2901604e+01 
-3.8160574e-01 8.3169121e-01 4.2902863e+01 
-7.8566879e-02 7.6482886e-01 4.2940315e+01 
-5.0480481e-02 5.5910730e-01 4.2990566e+01 
4.2671782e-01 3.4949207e-01 4.3375019e+01 
1.6821145e-01 5.2049083e-01 4.3083881e+01 
-1.8336046e-01 8.4576881e-01 4.2871841e+01 
-4.3632606e-01 9.6405160e-01 4.2837555e+01 
-1.6731077e-01 6.3101834e-01 4.2902817e+01 
1.4768846e-01 4.5400122e-01 4.3051926e+01 
-2.7610970e-01 7.1575516e-01 4.2831745e+01 
-3.1966189e-01 9.2221189e-01 4.2773579e+01 
-3.8560396e-01 8.3684862e-01 4.2767078e+01 
3.7660085e-02 6.4738947e-01 4.2866421e+01 
-7.3788933e-02 7.6323271e-01 4.2794899e+01 
4.3868470e-01 3.4116083e-01 4.3168777e+01 
-4.3632543e-01 9.6404779e-01 4.2709122e+01 
-2.0968946e-02 5.3986710e-01 4.2827656e+01 
-1.8011902e-01 8.4562629e-01 4.2725094e+01 
-1.6385415e-01 6.2714905e-01 4.2753403e+01 
-2.7453732e-01 7.1328926e-01 4.2680973e+01 
-3.1850323e-01 9.2250693e-01 4.2644733e+01 
-3.9907700e-01 8.5570478e-01 4.2643101e+01 
2.5504474e-02 6.6361672e-01 4.2734810e+01 
1.8471870e-01 5.0880390e-01 4.2796177e+01 
-6.8898737e-02 7.6156229e-01 4.2646645e+01 
-3.9438177e-02 5.4903054e-01 4.2692345e+01 
-4.3632481e-01 9.6404403e-01 4.2579861e+01 
4.5063871e-01 3.3281663e-01 4.2962532e+01 
1.6565691e-01 4.4095638e-01 4.2756321e+01 
-1.7682223e-01 8.4547096e-01 4.2575459e+01 
-1.6029853e-01 6.2318206e-01 4.2601143e+01 
-4.0415615e-01 8.6278629e-01 4.2516582e+01 
-3.1733403e-01 9.2279470e-01 4.2515053e+01 
-2.7293649e-01 7.1077597e-01 4.2527313e+01 
5.0482783e-02 6.3954860e-01 4.2569923e+01 
-4.3632418e-01 9.6404034e-01 4.2449757e+01 
-6.3893095e-02 7.5981271e-01 4.2495445e+01 
-8.6617703e-03 5.2904755e-01 4.2523201e+01 
-1.7346917e-01 8.4530097e-01 4.2422829e+01 
-1.5663996e-01 6.1911333e-01 4.2445942e+01 
3.0435190e-01 4.1341871e-01 4.2643494e+01 
4.6257737e-01 3.2445681e-01 4.2756287e+01 
-3.1615424e-01 9.2307472e-01 4.2384518e+01 
-3.9902648e-01 8.5475212e-01 4.2382885e+01 
-2.7130640e-01 7.0821363e-01 4.2370659e+01 
3.8079392e-02 6.5619886e-01 4.2433029e+01 
2.0230262e-01 4.9620378e-01 4.2497147e+01 
-4.3632355e-01 9.6403670e-01 4.2318787e+01 
-5.8768708e-02 7.5797862e-01 4.2341198e+01 
-2.7680276e-02 5.3838593e-01 4.2382599e+01 
1.8486446e-01 4.2715022e-01 4.2449394e+01 
-3.8436696e-01 8.3356136e-01 4.2264896e+01 
8.9545198e-02 5.3233254e-01 4.2382050e+01 
-3.3225983e-01 9.3122375e-01 4.2255634e+01 
-1.7005907e-01 8.4511453e-01 4.2267101e+01 
-1.5287429e-01 6.1493850e-01 4.2287693e+01 
4.7449806e-01 3.1607881e-01 4.2550037e+01 
-2.6964626e-01 7.0560038e-01 4.2210907e+01 
-4.3632296e-01 9.6403313e-01 4.2186939e+01 
6.4036883e-02 6.3103610e-01 4.2261456e+01 
-5.3522192e-02 7.5605446e-01 4.2183796e+01 
-3.7873057e-01 8.2541841e-01 4.2124020e+01 
-3.1376252e-01 9.2360973e-01 4.2120819e+01 
4.4639236e-03 5.1760370e-01 4.2206776e+01 
-1.6659111e-01 8.4490943e-01 4.2108162e+01 
-1.4899719e-01 6.1065292e-01 4.2126286e+01 
-4.3632239e-01 9.6402961e-01 4.2054195e+01 
4.8639825e-01 3.0768004e-01 4.2343792e+01 
-2.6795524e-01 7.0293444e-01 4.2047943e+01 
2.4746621e-01 4.6040925e-01 4.2191032e+01 
7.1105182e-02 6.2650448e-01 4.2102463e+01 
-3.1255043e-01 9.2386365e-01 4.1987617e+01 
-4.8150036e-02 7.5403398e-01 4.2023121e+01 
-1.5144684e-02 5.2712250e-01 4.2060505e+01 
-3.7995064e-01 8.2661813e-01 4.1980038e+01 
2.0541981e-01 4.1251117e-01 4.2130333e+01 
-1.6306458e-01 8.4468329e-01 4.1945896e+01 
-4.3632182e-01 9.6402621e-01 4.1920536e+01 
-1.4500406e-01 6.0625184e-01 4.1961609e+01 
1.3375351e-01 5.6370503e-01 4.1969833e+01 
-2.6623246e-01 7.0021385e-01 4.1881653e+01 
-3.1132740e-01 9.2410773e-01 4.1853493e+01 
-3.9880505e-01 8.5261923e-01 4.1851868e+01 
4.9827534e-01 2.9925787e-01 4.2137547e+01 
3.4194937e-01 3.8685825e-01 4.2025021e+01 
-4.2648647e-02 7.5191063e-01 4.1859051e+01 
-2.5401810e-01 7.9503769e-01 4.1808533e+01 
1.8480448e-02 5.0547802e-01 4.1877510e+01 
-4.3632126e-01 9.6402287e-01 4.1785946e+01 
-1.5947884e-01 8.4443361e-01 4.1780174e+01 
-1.4089009e-01 6.0172999e-01 4.1793541e+01 
-3.1009343e-01 9.2434150e-01 4.1718426e+01 
-4.0306881e-01 8.5845691e-01 4.1716179e+01 
8.5861288e-02 6.1683756e-01 4.1774368e+01 
-2.6447710e-01 6.9743657e-01 4.1711910e+01 
3.0427080e-01 4.1638452e-01 4.1839512e+01 
2.6751360e-01 3.7833902e-01 4.1830902e+01 
5.1012677e-01 2.9080975e-01 4.1931297e+01 
-3.7014309e-02 7.4967718e-01 4.1691463e+01 
-4.3632072e-01 9.6401966e-01 4.1650398e+01 
2.5847588e-02 4.9913955e-01 4.1707767e+01 
-1.5583332e-01 8.4415752e-01 4.1610870e+01 
-3.8322043e-01 8.2981020e-01 4.1595791e+01 
-3.0884841e-01 9.2456430e-01 4.1582397e+01 
-1.3665022e-01 5.9708190e-01 4.1621960e+01 
9.3565010e-02 6.1167872e-01 4.1605015e+01 
-2.6268822e-01 6.9460052e-01 4.1538593e+01 
-4.3632022e-01 9.6401656e-01 4.1513885e+01 
-3.1243213e-02 7.4732590e-01 4.1520226e+01 
2.7603787e-01 3.7115356e-01 4.1624012e+01 
2.8505871e-01 4.3281260e-01 4.1611507e+01 
5.2195001e-01 2.8233302e-01 4.1725052e+01 
3.3468332e-02 4.9260557e-01 4.1534447e+01 
-3.9853087e-01 8.5081697e-01 4.1443768e+01 
-3.2560509e-01 9.3245691e-01 4.1443577e+01 
-1.5212752e-01 8.4385180e-01 4.1437847e+01 
-1.3227913e-01 5.9230179e-01 4.1446728e+01 
-4.3631971e-01 9.6401358e-01 4.1376381e+01 
[...]
POINT_DATA 6166
FIELD FieldData 5
DISPLACEMENT 3 6166  float
3.8283104e-01 3.5253388e-01 -5.3083343e-03 
3.8051200e-01 3.5018635e-01 -5.2630184e-03 
3.8279384e-01 3.5246506e-01 -6.5193693e-03 
3.8278368e-01 3.5252267e-01 -3.8811681e-03 
3.7931681e-01 3.4894675e-01 -6.3943500e-03 
3.7939757e-01 3.4909534e-01 -3.7981118e-03 
3.7818015e-01 3.4782580e-01 -5.2174358e-03 
3.8275334e-01 3.5240340e-01 -7.3219244e-03 
3.8273430e-01 3.5247713e-01 -3.7081446e-03 
3.8038969e-01 3.5000935e-01 -7.3269773e-03 
3.8029325e-01 3.5000646e-01 -3.6456785e-03 
3.7697837e-01 3.4657884e-01 -6.3758423e-03 
3.7680230e-01 3.4646785e-01 -3.7585564e-03 
3.7798598e-01 3.4757474e-01 -7.3320777e-03 
3.7583515e-01 3.4545198e-01 -5.1715835e-03 
3.8271341e-01 3.5235128e-01 -7.7773575e-03 
3.7781209e-01 3.4749517e-01 -3.5822031e-03 
3.8269284e-01 3.5242546e-01 -4.0869378e-03 
3.7908936e-01 3.4868070e-01 -7.7812774e-03 
3.7896097e-01 3.4864834e-01 -3.9880597e-03 
3.7462667e-01 3.4419757e-01 -6.3571553e-03 
3.7441555e-01 3.4405157e-01 -3.7180274e-03 
3.7554097e-01 3.4509832e-01 -7.3371935e-03 
3.7528959e-01 3.4494200e-01 -3.5177090e-03 
3.7347683e-01 3.4306470e-01 -5.1254635e-03 
3.7666345e-01 3.4622353e-01 -7.7883722e-03 
3.8266709e-01 3.5230336e-01 -7.8164106e-03 
3.7645784e-01 3.4611470e-01 -3.9302697e-03 
3.8264930e-01 3.5236064e-01 -4.8947823e-03 
3.7226155e-01 3.4180269e-01 -6.3382685e-03 
3.7222436e-01 3.4183106e-01 -3.7673225e-03 
3.7305334e-01 3.4257880e-01 -7.3422864e-03 
3.7779984e-01 3.4737417e-01 -7.8021344e-03 
3.7419552e-01 3.4372389e-01 -7.7954633e-03 
3.7272441e-01 3.4234574e-01 -3.4521881e-03 
3.7764585e-01 3.4729403e-01 -4.8585632e-03 
3.7987483e-01 3.4947667e-01 -7.7655232e-03 
3.7391272e-01 3.4353849e-01 -3.8717485e-03 
3.7110502e-01 3.4066373e-01 -5.0790869e-03 
3.7983599e-01 3.4949920e-01 -5.3651510e-03 
3.7561449e-01 3.4516019e-01 -7.8272186e-03 
3.7538910e-01 3.4501350e-01 -4.6606925e-03 
3.8261482e-01 3.5224870e-01 -7.8849327e-03 
3.8260219e-01 3.5228381e-01 -6.0257018e-03 
3.6988279e-01 3.3939409e-01 -6.3192169e-03 
3.6984560e-01 3.3942333e-01 -3.7137622e-03 
3.7052178e-01 3.4001482e-01 -7.3473216e-03 
3.7168428e-01 3.4118038e-01 -7.8024962e-03 
3.7011528e-01 3.3970496e-01 -3.3855720e-03 
3.7132418e-01 3.4091845e-01 -3.8124088e-03 
3.6871937e-01 3.3824894e-01 -5.0323596e-03 
3.7286240e-01 3.4237379e-01 -7.7930540e-03 
3.7255478e-01 3.4214008e-01 -4.7735190e-03 
3.7655136e-01 3.4610656e-01 -7.9245567e-03 
3.7978083e-01 3.4937277e-01 -8.1039807e-03 
3.7974828e-01 3.4937254e-01 -6.8349726e-03 
3.7637675e-01 3.4597281e-01 -6.2535005e-03 
3.6747909e-01 3.3702648e-01 -3.7198924e-03 
3.6749011e-01 3.3697149e-01 -6.2998543e-03 
3.6912841e-01 3.3859172e-01 -7.8094206e-03 
3.7059957e-01 3.4008130e-01 -7.8202682e-03 
3.6794493e-01 3.3740503e-01 -7.3522553e-03 
3.8255811e-01 3.5218000e-01 -8.3250403e-03 
3.8255128e-01 3.5219532e-01 -7.4620480e-03 
3.6869100e-01 3.3825323e-01 -3.7523739e-03 
3.7022030e-01 3.3978111e-01 -4.5691784e-03 
3.6746085e-01 3.3701843e-01 -3.3179852e-03 
3.6631989e-01 3.3582011e-01 -4.9854470e-03 
3.7157393e-01 3.4106585e-01 -7.9087680e-03 
3.6508352e-01 3.3453494e-01 -6.2804292e-03 
3.6504647e-01 3.3456594e-01 -3.6054116e-03 
3.6652648e-01 3.3595654e-01 -7.8161694e-03 
3.7124678e-01 3.4077805e-01 -6.2220665e-03 
3.6532137e-01 3.3474809e-01 -7.3569943e-03 
3.6774901e-01 3.3719543e-01 -7.7823577e-03 
3.6601174e-01 3.3554146e-01 -3.6915913e-03 
3.6475965e-01 3.3428463e-01 -3.2491577e-03 
3.6728764e-01 3.3680806e-01 -4.6879682e-03 
3.6390620e-01 3.3337706e-01 -4.9381708e-03 
3.8250014e-01 3.5208687e-01 -9.6622314e-03 
3.7852010e-01 3.4805599e-01 -9.6535422e-03 
3.6266261e-01 3.3208382e-01 -6.2607233e-03 
3.6262572e-01 3.3211583e-01 -3.5506054e-03 
3.6387709e-01 3.3327344e-01 -7.8226840e-03 
3.6512294e-01 3.3453614e-01 -7.7761826e-03 
3.6487070e-01 3.3436584e-01 -4.4767992e-03 
3.6264956e-01 3.3204252e-01 -7.3614572e-03 
3.6328509e-01 3.3278182e-01 -3.6300446e-03 
3.6147812e-01 3.3091956e-01 -4.8906207e-03 
3.7454009e-01 3.4402522e-01 -9.6447142e-03 
3.6583686e-01 3.3525816e-01 -7.8118802e-03 
3.6201036e-01 3.3150238e-01 -3.1792987e-03 
3.6843750e-01 3.3788025e-01 -8.2658250e-03 
3.6845642e-01 3.3792385e-01 -7.3165069e-03 
3.6593843e-01 3.3540282e-01 -6.1942539e-03 
3.6035800e-01 3.2982436e-01 -3.3644105e-03 
3.6022723e-01 3.2961839e-01 -6.2405765e-03 
3.6244863e-01 3.3182830e-01 -7.7695083e-03 
3.6117870e-01 3.3054096e-01 -7.8289639e-03 
3.7056041e-01 3.3999497e-01 -9.6355947e-03 
3.5992819e-01 3.2928684e-01 -7.3659206e-03 
3.6183351e-01 3.3128724e-01 -4.6021286e-03 
3.6050934e-01 3.2997280e-01 -3.5675277e-03 
3.5903555e-01 3.2844755e-01 -4.8427102e-03 
3.5921136e-01 3.2866994e-01 -3.1082937e-03 
3.6446032e-01 3.3385265e-01 -8.2603395e-03 
3.6001584e-01 3.2936406e-01 -7.8005167e-03 
3.5777712e-01 3.2713836e-01 -6.2203021e-03 
3.5778514e-01 3.2722118e-01 -3.2919461e-03 
3.5842976e-01 3.2775751e-01 -7.8348713e-03 
3.5932887e-01 3.2875672e-01 -4.3834732e-03 
3.6658162e-01 3.3596560e-01 -9.6257748e-03 
3.6107317e-01 3.3043274e-01 -7.8746667e-03 
3.5715544e-01 3.2647943e-01 -7.3699499e-03 
3.5657796e-01 3.2596067e-01 -4.7944100e-03 
3.5768321e-01 3.2711291e-01 -3.5044830e-03 
3.6044097e-01 3.2983664e-01 -6.1710556e-03 
3.5636100e-01 3.2578602e-01 -3.0361814e-03 
3.5531202e-01 3.2464334e-01 -6.1996332e-03 
3.5517332e-01 3.2457742e-01 -3.2651380e-03 
3.5694927e-01 3.2626060e-01 -7.7541429e-03 
3.5562876e-01 3.2492155e-01 -7.8403624e-03 
3.6260295e-01 3.3193666e-01 -9.6157519e-03 
3.5410547e-01 3.2345900e-01 -4.7459668e-03 
3.5618049e-01 3.2556587e-01 -4.5158556e-03 
3.5432985e-01 3.2361895e-01 -7.3735146e-03 
3.5480478e-01 3.2420060e-01 -3.4403638e-03 
3.5345802e-01 3.2284907e-01 -2.9631048e-03 
3.5283208e-01 3.2213348e-01 -6.1785229e-03 
3.5279566e-01 3.2216895e-01 -3.3274128e-03 
3.5442320e-01 3.2370228e-01 -7.7865645e-03 
3.5552654e-01 3.2481742e-01 -7.8561297e-03 
3.5277399e-01 3.2203162e-01 -7.8451419e-03 
3.5358250e-01 3.2294163e-01 -4.2892038e-03 
3.5161823e-01 3.2094249e-01 -4.6974355e-03 
3.5862607e-01 3.2791036e-01 -9.6052028e-03 
3.5474205e-01 3.2406709e-01 -6.1524091e-03 
3.5144991e-01 3.2070389e-01 -7.3765721e-03 
3.5187310e-01 3.2123449e-01 -3.3759321e-03 
3.5036451e-01 3.1970856e-01 -3.3208858e-03 
3.5033718e-01 3.1960914e-01 -6.1574825e-03 
3.5050085e-01 3.1985748e-01 -2.8885584e-03 
3.5123861e-01 3.2048011e-01 -7.7352747e-03 
3.4911561e-01 3.1841087e-01 -4.6483204e-03 
3.4986430e-01 3.1908661e-01 -7.8493003e-03 
3.5031679e-01 3.1963265e-01 -4.4298558e-03 
3.4851375e-01 3.1773233e-01 -7.3791067e-03 
3.4888664e-01 3.1821337e-01 -3.3100795e-03 
3.5253721e-01 3.2178161e-01 -8.2406942e-03 
3.5465118e-01 3.2388690e-01 -9.5940102e-03 
3.4782675e-01 3.1706873e-01 -6.1360956e-03 
3.4779057e-01 3.1710592e-01 -3.2139381e-03 
3.4748760e-01 3.1680980e-01 -2.8127099e-03 
3.4861362e-01 3.1782272e-01 -7.7693025e-03 
3.4976628e-01 3.1898746e-01 -7.8359935e-03 
3.4659764e-01 3.1586385e-01 -4.5992075e-03 
3.4689701e-01 3.1608376e-01 -7.8531289e-03 
3.4761980e-01 3.1690919e-01 -4.1945619e-03 
3.4882990e-01 3.1808358e-01 -6.1390009e-03 
3.4551370e-01 3.1480616e-01 -3.0403815e-03 
3.4758556e-01 3.1681943e-01 -6.3288095e-03 
3.4535512e-01 3.1457275e-01 -5.9359646e-03 
3.4551969e-01 3.1470254e-01 -7.3810723e-03 
3.4584245e-01 3.1513467e-01 -3.2440128e-03 
3.5067809e-01 3.1986508e-01 -9.5816199e-03 
3.4441647e-01 3.1370431e-01 -2.7361256e-03 
3.4406444e-01 3.1330207e-01 -4.5497236e-03 
3.4530270e-01 3.1447378e-01 -7.7129463e-03 
3.4387103e-01 3.1302172e-01 -7.8559658e-03 
3.4280387e-01 3.1206736e-01 -2.9386198e-03 
3.4275994e-01 3.1194302e-01 -6.0915179e-03 
3.4422803e-01 3.1347352e-01 -4.3438203e-03 
3.4246603e-01 3.1161299e-01 -7.3827496e-03 
3.4273934e-01 3.1199703e-01 -3.1765504e-03 
3.4151554e-01 3.1072453e-01 -4.4996752e-03 
3.4670725e-01 3.1584716e-01 -9.5685180e-03 
3.4128577e-01 3.1053904e-01 -2.6581173e-03 
3.4386274e-01 3.1301239e-01 -7.8920582e-03 
3.4224638e-01 3.1138143e-01 -7.7003101e-03 
3.4020269e-01 3.0935723e-01 -6.0689114e-03 
3.4078413e-01 3.0989885e-01 -7.8576030e-03 
3.4142557e-01 3.1064466e-01 -4.0995423e-03 
3.4004015e-01 3.0927321e-01 -2.8858318e-03 
3.4268981e-01 3.1187084e-01 -6.1311210e-03 
3.3935073e-01 3.0846167e-01 -7.3832171e-03 
3.3895007e-01 3.0813125e-01 -4.4491217e-03 
3.3957613e-01 3.0879930e-01 -3.1090938e-03 
3.3966929e-01 3.0877677e-01 -7.6320972e-03 
3.3809397e-01 3.0731311e-01 -2.5792767e-03 
3.3762944e-01 3.0675563e-01 -6.0454118e-03 
3.3759317e-01 3.0679592e-01 -2.9826211e-03 
3.4274083e-01 3.1183499e-01 -9.5544457e-03 
3.4063536e-01 3.0973914e-01 -8.2126968e-03 
3.3763516e-01 3.0671391e-01 -7.8580305e-03 
3.3671835e-01 3.0587015e-01 -4.6247002e-03 
3.3790103e-01 3.0707607e-01 -4.2584552e-03 
3.3636937e-01 3.0552337e-01 -4.3983744e-03 
3.3617261e-01 3.0524826e-01 -7.3815361e-03 
3.3635142e-01 3.0554003e-01 -3.0417033e-03 
3.3504060e-01 3.0413899e-01 -6.0216337e-03 
3.3499560e-01 3.0417061e-01 -2.9655041e-03 
3.3594641e-01 3.0501074e-01 -7.6690922e-03 
3.3483952e-01 3.0402511e-01 -2.4997713e-03 
3.3709177e-01 3.0616069e-01 -7.9938890e-03 
3.3692151e-01 3.0602589e-01 -6.5488000e-03 
3.3877614e-01 3.0782422e-01 -9.5385732e-03 
3.3442277e-01 3.0346581e-01 -7.8568934e-03 
3.3377299e-01 3.0290028e-01 -4.3482627e-03 
3.3464476e-01 3.0378520e-01 -4.2170421e-03 
3.3293015e-01 3.0197039e-01 -7.3791528e-03 
3.3267832e-01 3.0183405e-01 -2.7487080e-03 
3.3243701e-01 3.0150825e-01 -5.9967246e-03 
3.3306253e-01 3.0221793e-01 -2.9722140e-03 
3.3270106e-01 3.0173022e-01 -7.6523386e-03 
3.3152154e-01 3.0067366e-01 -2.4186887e-03 
3.3116245e-01 3.0026263e-01 -4.2976569e-03 
3.3114392e-01 3.0015230e-01 -7.8543760e-03 
3.3295459e-01 3.0201700e-01 -6.4968020e-03 
3.3273283e-01 3.0175737e-01 -7.8576719e-03 
3.3481729e-01 3.0382162e-01 -9.5213121e-03 
3.3132380e-01 3.0043024e-01 -4.1752234e-03 
3.2978189e-01 2.9890475e-01 -2.8073974e-03 
3.2978907e-01 2.9883721e-01 -5.7761637e-03 
3.2962039e-01 2.9862663e-01 -7.3762615e-03 
3.2970902e-01 2.9883140e-01 -2.9031422e-03 
3.2853475e-01 2.9760912e-01 -4.2459327e-03 
3.2985708e-01 2.9885826e-01 -7.5889397e-03 
3.2813698e-01 2.9725656e-01 -2.3370932e-03 
3.2779789e-01 2.9677200e-01 -7.8505185e-03 
3.2718208e-01 2.9620028e-01 -5.9472476e-03 
3.2714498e-01 2.9624352e-01 -2.7480947e-03 
3.2793686e-01 2.9700997e-01 -4.1340739e-03 
3.2918057e-01 2.9820180e-01 -6.5736603e-03 
3.3086482e-01 2.9982722e-01 -9.5030610e-03 
3.2624280e-01 2.9521495e-01 -7.3718131e-03 
3.2858181e-01 2.9756144e-01 -7.9381410e-03 
3.2589063e-01 2.9494080e-01 -4.1929102e-03 
3.2628825e-01 2.9537845e-01 -2.8333750e-03 
3.2636350e-01 2.9533067e-01 -7.5576669e-03 
3.2452953e-01 2.9352316e-01 -5.9211119e-03 
3.2449245e-01 2.9356813e-01 -2.6883851e-03 
3.2468444e-01 2.9377258e-01 -2.2539389e-03 
3.2438198e-01 2.9332265e-01 -7.8453021e-03 
3.2448179e-01 2.9352266e-01 -4.0932647e-03 
3.2323042e-01 2.9225758e-01 -4.1407831e-03 
3.2540271e-01 2.9439127e-01 -6.4066551e-03 
3.2691932e-01 2.9584169e-01 -9.4828187e-03 
3.2279393e-01 2.9173335e-01 -7.3659988e-03 
3.2279789e-01 2.9185724e-01 -2.7628671e-03 
3.2475042e-01 2.9369232e-01 -7.9490421e-03 
3.2186106e-01 2.9083046e-01 -5.8942819e-03 
3.2182446e-01 2.9087690e-01 -2.6286154e-03 
3.2273057e-01 2.9166389e-01 -7.5340974e-03 
3.2116109e-01 2.9021960e-01 -2.1696321e-03 
3.2055444e-01 2.8955817e-01 -4.0891110e-03 
3.2089350e-01 2.8980234e-01 -7.8383759e-03 
3.2095593e-01 2.8996569e-01 -4.0528439e-03 
3.1917724e-01 2.8812346e-01 -5.8672535e-03 
3.1914005e-01 2.8816941e-01 -2.5677378e-03 
3.1927139e-01 2.8817996e-01 -7.3592379e-03 
3.2298136e-01 2.9186583e-01 -9.4606010e-03 
3.1923571e-01 2.8826585e-01 -2.6917506e-03 
3.2094386e-01 2.8989559e-01 -6.2327348e-03 
3.2095012e-01 2.8985599e-01 -7.9652742e-03 
3.1786159e-01 2.8684345e-01 -4.0354882e-03 
3.1903940e-01 2.8794032e-01 -7.5088246e-03 
3.1756499e-01 2.8659549e-01 -2.0849600e-03 
3.1733096e-01 2.8620926e-01 -7.8288885e-03 
3.1789604e-01 2.8687385e-01 -4.2675133e-03 
3.1647491e-01 2.8539965e-01 -5.8397464e-03 
3.1643915e-01 2.8544870e-01 -2.5090822e-03 
3.1567380e-01 2.8455281e-01 -7.3497551e-03 
3.1905061e-01 2.8789896e-01 -9.4398214e-03 
3.1515265e-01 2.8411502e-01 -3.9845551e-03 
3.1560072e-01 2.8460288e-01 -2.6200125e-03 
3.1709722e-01 2.8597018e-01 -7.9325233e-03 
3.1666508e-01 2.8557286e-01 -6.4877514e-03 
3.1534031e-01 2.8421059e-01 -7.4850572e-03 
3.1375805e-01 2.8266263e-01 -5.8132154e-03 
3.1372082e-01 2.8271168e-01 -2.4493993e-03 
3.1389564e-01 2.8289920e-01 -1.9977130e-03 
3.1369239e-01 2.8254187e-01 -7.8170821e-03 
3.1422338e-01 2.8316823e-01 -4.3945177e-03 
3.1242630e-01 2.8136927e-01 -3.9322502e-03 
3.1200075e-01 2.8085107e-01 -7.3382626e-03 
3.1188482e-01 2.8081557e-01 -4.2337738e-03 
3.1512859e-01 2.8394485e-01 -9.4163259e-03 
3.1189048e-01 2.8086647e-01 -2.5477342e-03 
3.1328934e-01 2.8213316e-01 -7.8442302e-03 
3.1102383e-01 2.7990904e-01 -5.7829744e-03 
3.1098580e-01 2.7995723e-01 -2.3884624e-03 
3.1161037e-01 2.8045231e-01 -7.4656289e-03 
3.1276980e-01 2.8164357e-01 -6.5837950e-03 
3.1014925e-01 2.7912790e-01 -1.9109028e-03 
3.0968395e-01 2.7860814e-01 -3.8776037e-03 
3.0997506e-01 2.7879745e-01 -7.8036268e-03 
3.1041873e-01 2.7933675e-01 -4.3762675e-03 
3.0827197e-01 2.7713865e-01 -5.7546711e-03 
3.0823615e-01 2.7719006e-01 -2.3283886e-03 
3.0824441e-01 2.7707011e-01 -7.3240250e-03 
3.1121305e-01 2.7999881e-01 -9.3916943e-03 
3.0810216e-01 2.7705413e-01 -2.4753271e-03 
3.0946091e-01 2.7827695e-01 -7.8085046e-03 
3.0692431e-01 2.7583209e-01 -3.8251502e-03 
3.0782855e-01 2.7664521e-01 -7.4408031e-03 
3.0895147e-01 2.7779388e-01 -6.7264824e-03 
3.0627105e-01 2.7514458e-01 -5.0370721e-03 
3.0632344e-01 2.7528021e-01 -1.8209075e-03 
3.0617583e-01 2.7497384e-01 -7.7869771e-03 
3.0550402e-01 2.7435559e-01 -5.7258769e-03 
3.0649009e-01 2.7538127e-01 -4.4331113e-03 
3.0512199e-01 2.7406248e-01 -2.1190259e-03 
3.0440754e-01 2.7320990e-01 -7.3088231e-03 
3.0414653e-01 2.7304018e-01 -3.7712136e-03 
3.0730972e-01 2.7606952e-01 -9.3642110e-03 
3.0424100e-01 2.7316687e-01 -2.6016233e-03 
3.0550611e-01 2.7429977e-01 -7.7299806e-03 
3.0412441e-01 2.7291766e-01 -7.4400902e-03 
3.0525815e-01 2.7406892e-01 -7.0523773e-03 
3.0272722e-01 2.7156460e-01 -5.6839450e-03 
3.0269077e-01 2.7161601e-01 -2.2109291e-03 
3.0241662e-01 2.7135319e-01 -1.7309173e-03 
3.0231154e-01 2.7108857e-01 -7.7668764e-03 
3.0137187e-01 2.7025157e-01 -3.7183489e-03 
3.0180770e-01 2.7067235e-01 -4.4271406e-03 
3.0051741e-01 2.6930040e-01 -7.2915056e-03 
3.0342054e-01 2.7215835e-01 -9.3332250e-03 
2.9996201e-01 2.6878518e-01 -5.6339130e-03 
2.9992726e-01 2.6883838e-01 -2.1597648e-03 
3.0033794e-01 2.6925048e-01 -2.2982447e-03 
3.0137444e-01 2.7016437e-01 -7.0252907e-03 
3.0076888e-01 2.6953724e-01 -7.7101598e-03 
2.9956812e-01 2.6833990e-01 -7.3999860e-03 
2.9861617e-01 2.6748252e-01 -3.6669839e-03 
2.9852796e-01 2.6744682e-01 -1.6395724e-03 
2.9845637e-01 2.6721463e-01 -7.7502555e-03 
2.9819453e-01 2.6706135e-01 -3.6881564e-03 
2.9721746e-01 2.6602894e-01 -5.5822730e-03 
2.9701668e-01 2.6591858e-01 -1.9453352e-03 
2.9669166e-01 2.6545623e-01 -7.2727879e-03 
2.9954052e-01 2.6825961e-01 -9.3015255e-03 
2.9647854e-01 2.6537666e-01 -2.1900188e-03 
2.9587957e-01 2.6473516e-01 -3.6141293e-03 
2.9631728e-01 2.6507318e-01 -7.4009616e-03 
2.9718584e-01 2.6598421e-01 -6.0150200e-03 
2.9749882e-01 2.6624513e-01 -8.0078691e-03 
2.9598480e-01 2.6474005e-01 -7.3747868e-03 
2.9469749e-01 2.6360217e-01 -1.5531416e-03 
2.9448986e-01 2.6329157e-01 -5.5298521e-03 
2.9445639e-01 2.6334539e-01 -2.0595856e-03 
2.9466498e-01 2.6340532e-01 -7.7301357e-03 
2.9436785e-01 2.6322237e-01 -3.5420621e-03 
2.9316300e-01 2.6201004e-01 -3.5630413e-03 
2.9292938e-01 2.6167837e-01 -7.2499025e-03 
2.9567203e-01 2.6437536e-01 -9.2731221e-03 
2.9267919e-01 2.6156542e-01 -2.0857458e-03 
2.9204243e-01 2.6092982e-01 -1.8078329e-03 
2.9178542e-01 2.6057887e-01 -5.4760878e-03 
2.9256141e-01 2.6130107e-01 -7.3846634e-03 
2.9363602e-01 2.6236627e-01 -7.9789534e-03 
2.9363385e-01 2.6239079e-01 -6.9684610e-03 
2.9092658e-01 2.5981966e-01 -1.4686353e-03 
2.9221180e-01 2.6100963e-01 -5.2309670e-03 
2.9093578e-01 2.5966325e-01 -7.7076294e-03 
2.9046842e-01 2.5930637e-01 -3.5111229e-03 
2.9158857e-01 2.6032603e-01 -7.3351101e-03 
2.9060149e-01 2.5944680e-01 -3.4008240e-03 
2.8909922e-01 2.5788400e-01 -5.4237898e-03 
2.8922820e-01 2.5796649e-01 -7.2271638e-03 
2.9180849e-01 2.6049596e-01 -9.2365844e-03 
2.8893879e-01 2.5781643e-01 -1.9847527e-03 
2.8855640e-01 2.5743526e-01 -1.7002631e-03 
2.8886798e-01 2.5759694e-01 -7.3671686e-03 
2.8778955e-01 2.5662282e-01 -3.4610678e-03 
2.8978038e-01 2.5849465e-01 -7.9485597e-03 
2.8977701e-01 2.5851831e-01 -6.9390782e-03 
2.8721321e-01 2.5609967e-01 -1.3859695e-03 
2.8726822e-01 2.5598693e-01 -7.6832599e-03 
2.8643107e-01 2.5521240e-01 -5.3690001e-03 
2.8639925e-01 2.5526693e-01 -1.9141480e-03 
2.8773689e-01 2.5653121e-01 -4.8986510e-03 
2.8774568e-01 2.5647256e-01 -7.2950120e-03 
2.8689384e-01 2.5573400e-01 -3.2645988e-03 
2.8580689e-01 2.5463763e-01 -3.3917995e-03 
2.8558975e-01 2.5432122e-01 -7.2014485e-03 
2.8513250e-01 2.5396121e-01 -3.4117249e-03 
2.8795835e-01 2.5663260e-01 -9.1992291e-03 
2.8498334e-01 2.5386363e-01 -1.4065815e-03 
2.8525737e-01 2.5412947e-01 -1.8877628e-03 
2.8523684e-01 2.5395817e-01 -7.3482157e-03 
2.8594097e-01 2.5464699e-01 -7.9150982e-03 
2.8593612e-01 2.5466993e-01 -6.9081686e-03 
2.8378519e-01 2.5256506e-01 -5.3141061e-03 
2.8375056e-01 2.5261629e-01 -1.8682308e-03 
2.8363365e-01 2.5243831e-01 -4.2651822e-03 
2.8355646e-01 2.5243950e-01 -1.3081940e-03 
2.8363955e-01 2.5243226e-01 -4.7390698e-03 
2.8366461e-01 2.5237688e-01 -7.6549198e-03 
2.8390709e-01 2.5269765e-01 -4.8747081e-03 
2.8391856e-01 2.5264040e-01 -7.2529097e-03 
2.8324640e-01 2.5208437e-01 -3.1357617e-03 
2.8249645e-01 2.5132406e-01 -3.3600596e-03 
2.8234684e-01 2.5122616e-01 -1.3619778e-03 
2.8201205e-01 2.5074011e-01 -7.1696602e-03 
2.8140035e-01 2.5026229e-01 -1.9567343e-03 
2.8163078e-01 2.5050300e-01 -1.7925055e-03 
2.8412434e-01 2.5279257e-01 -9.1593666e-03 
2.8134188e-01 2.5016943e-01 -3.3293765e-03 
2.8115952e-01 2.4993761e-01 -5.2582696e-03 
2.8166920e-01 2.5038794e-01 -7.3305680e-03 
2.8211743e-01 2.5082132e-01 -7.8798272e-03 
2.8211135e-01 2.5084350e-01 -6.8754503e-03 
2.7988204e-01 2.4870992e-01 -3.3125211e-03 
2.7995935e-01 2.4884367e-01 -1.2313406e-03 
2.8011632e-01 2.4882860e-01 -7.6248148e-03 
2.7965420e-01 2.4849506e-01 -3.0035023e-03 
2.8009307e-01 2.4888106e-01 -4.8537147e-03 
2.8010666e-01 2.4882737e-01 -7.2127352e-03 
2.7855599e-01 2.4733546e-01 -5.2045900e-03 
2.7863246e-01 2.4745885e-01 -3.4306617e-03 
2.7852139e-01 2.4738912e-01 -1.7797399e-03 
2.7849308e-01 2.4722065e-01 -7.1404977e-03 
2.7806193e-01 2.4693558e-01 -1.7009595e-03 
2.8030735e-01 2.4897407e-01 -9.1164792e-03 
2.7815831e-01 2.4687664e-01 -7.3073134e-03 
2.7728689e-01 2.4611761e-01 -3.2623762e-03 
2.7713850e-01 2.4602085e-01 -1.2666666e-03 
2.7655470e-01 2.4534409e-01 -4.8118592e-03 
2.7663177e-01 2.4534459e-01 -7.5931838e-03 
2.7641580e-01 2.4530339e-01 -1.1576462e-03 
2.7831104e-01 2.4701476e-01 -7.8421040e-03 
2.7830386e-01 2.4703585e-01 -6.8401136e-03 
2.7614704e-01 2.4497563e-01 -3.3786281e-03 
2.7607784e-01 2.4487975e-01 -4.4307620e-03 
2.7596939e-01 2.4475303e-01 -5.1498716e-03 
2.7593634e-01 2.4480836e-01 -1.7347996e-03 
2.7611637e-01 2.4496330e-01 -2.8790843e-03 
2.7629304e-01 2.4508494e-01 -4.8270645e-03 
2.7630857e-01 2.4503277e-01 -7.1687787e-03 
2.7503392e-01 2.4376510e-01 -7.1071996e-03 
2.7471074e-01 2.4354748e-01 -3.2144410e-03 
2.7456388e-01 2.4345219e-01 -1.2222892e-03 
2.7455181e-01 2.4343383e-01 -1.6136288e-03 
2.7470398e-01 2.4342544e-01 -7.2879009e-03 
2.7650583e-01 2.4517421e-01 -9.0711480e-03 
2.7340293e-01 2.4219275e-01 -5.0954325e-03 
2.7337232e-01 2.4224994e-01 -1.6907129e-03 
2.7317107e-01 2.4198347e-01 -4.1845995e-03 
2.7320367e-01 2.4192266e-01 -7.5600878e-03 
2.7292719e-01 2.4182330e-01 -1.0821827e-03 
2.7451783e-01 2.4322554e-01 -7.8021674e-03 
2.7450985e-01 2.4324588e-01 -6.8029524e-03 
2.7215421e-01 2.4099728e-01 -3.1696274e-03 