# vtk DataFile Version 4.0
vtk output
ASCII
DATASET UNSTRUCTURED_GRID
POINTS 6166 float
-4.3633327e-01 9.6409470e-01 4.4200001e+01 
-4.3633261e-01 9.6409082e-01 4.4079685e+01 
-3.2145375e-01 9.1276109e-01 4.4200001e+01 
-3.8566181e-01 8.4097892e-01 4.4200001e+01 
-3.3069235e-01 9.1895354e-01 4.4019413e+01 
-3.8473952e-01 8.3919770e-01 4.4024357e+01 
-4.3633196e-01 9.6408689e-01 4.3958702e+01 
-2.1293370e-01 8.4677851e-01 4.4200001e+01 
-2.9042658e-01 7.3813015e-01 4.4200001e+01 
-2.1019450e-01 8.4669626e-01 4.4077393e+01 
-2.8909999e-01 7.3605996e-01 4.4073399e+01 
-3.2963324e-01 9.1929907e-01 4.3898094e+01 
-3.8679782e-01 8.4179753e-01 4.3889645e+01 
-2.0740938e-01 8.4661204e-01 4.3952713e+01 
-4.3633130e-01 9.6408290e-01 4.3837040e+01 
-1.1677200e-01 7.7521002e-01 4.4200001e+01 
-2.8775173e-01 7.3395580e-01 4.3944717e+01 
-1.9365783e-01 6.6203654e-01 4.4200001e+01 
-1.1309985e-01 7.7540898e-01 4.4012005e+01 
-1.9181472e-01 6.5888047e-01 4.4006447e+01 
-3.2856464e-01 9.1964108e-01 4.3776085e+01 
-3.8823184e-01 8.4352189e-01 4.3765770e+01 
-2.0457739e-01 8.4652513e-01 4.3825886e+01 
-2.8638119e-01 7.3181647e-01 4.3813885e+01 
-4.3633065e-01 9.6407896e-01 4.3714680e+01 
-1.0911675e-01 7.7426714e-01 4.3886200e+01 
-2.1001574e-02 6.8269837e-01 4.4200001e+01 
-1.8902887e-01 6.5566909e-01 4.3876659e+01 
-7.8887597e-02 5.9015810e-01 4.4200001e+01 
-3.2748649e-01 9.1997939e-01 4.3653378e+01 
-3.9889076e-01 8.5876143e-01 4.3651733e+01 
-2.0169757e-01 8.4643483e-01 4.3696846e+01 
-7.2496021e-03 6.7325598e-01 4.3947758e+01 
-1.0504345e-01 7.7307969e-01 4.3758209e+01 
-2.8498772e-01 7.2964084e-01 4.3680840e+01 
-6.3224643e-02 5.7783771e-01 4.3940754e+01 
3.5808440e-02 6.2679136e-01 4.4056572e+01 
-1.8616955e-01 6.5238589e-01 4.3744686e+01 
-4.3632996e-01 9.6407503e-01 4.3591618e+01 
-9.8678423e-03 5.4892725e-01 4.4055367e+01 
-1.8652271e-02 6.8798620e-01 4.3834026e+01 
-7.9845116e-02 5.8636194e-01 4.3823372e+01 
8.7777540e-02 5.7885915e-01 4.4200001e+01 
5.3622175e-02 5.1732427e-01 4.4200001e+01 
-3.2639861e-01 9.2031354e-01 4.3529953e+01 
-3.9894739e-01 8.5844576e-01 4.3528313e+01 
-1.9876897e-01 8.4634024e-01 4.3565521e+01 
-1.0087753e-01 7.7184403e-01 4.3627972e+01 
-2.8357074e-01 7.2742778e-01 4.3545506e+01 
-1.8323407e-01 6.4902818e-01 4.3610458e+01 
-4.3632931e-01 9.6407109e-01 4.3467831e+01 
3.1033519e-03 6.6751039e-01 4.3691772e+01 
-5.3600248e-02 5.6906003e-01 4.3676846e+01 
1.2436585e-01 5.5082864e-01 4.3886215e+01 
1.7079005e-01 5.1095647e-01 4.4054855e+01 
1.4951277e-01 4.6697062e-01 4.4053665e+01 
1.0028158e-01 4.8915190e-01 4.3877911e+01 
-4.0513036e-01 8.6722642e-01 4.3405304e+01 
-3.2530096e-01 9.2064321e-01 4.3405800e+01 
-9.6616447e-02 7.7055699e-01 4.3495411e+01 
-8.4563000e-03 6.8258613e-01 4.3574005e+01 
-1.9579062e-01 8.4624058e-01 4.3431831e+01 
2.1753120e-01 4.7335833e-01 4.4200001e+01 
2.0360756e-01 4.4289169e-01 4.4200001e+01 
-1.8021962e-01 6.4559317e-01 4.3473904e+01 
-7.0636064e-02 5.7773441e-01 4.3555408e+01 
-2.8212959e-01 7.2517604e-01 4.3407806e+01 
-4.3632865e-01 9.6406716e-01 4.3343307e+01 
1.3810426e-01 5.4143524e-01 4.3628246e+01 
-3.2419339e-01 9.2096806e-01 4.3280907e+01 
-3.9903235e-01 8.5775709e-01 4.3279266e+01 
-9.2257597e-02 7.6921552e-01 4.3360443e+01 
1.1508528e-01 4.7804743e-01 4.3612068e+01 
-1.9276154e-01 8.4613472e-01 4.3295704e+01 
1.4013666e-02 6.6131532e-01 4.3426643e+01 
-1.7712323e-01 6.4207786e-01 4.3334946e+01 
-2.8066361e-01 7.2288430e-01 4.3267666e+01 
-4.3382257e-02 5.5983055e-01 4.3403778e+01 
-4.3632799e-01 9.6406323e-01 4.3218033e+01 
3.7877345e-01 3.8273901e-01 4.4200001e+01 
3.9076596e-01 3.7443376e-01 4.3993755e+01 
-3.2307580e-01 9.2128778e-01 4.3155251e+01 
-3.9906058e-01 8.5738426e-01 4.3153610e+01 
-8.7798268e-02 7.6781619e-01 4.3222996e+01 
1.9689407e-02 6.5803534e-01 4.3290459e+01 
-6.0862999e-02 5.6866169e-01 4.3278019e+01 
-1.8968078e-01 8.4602165e-01 4.3157055e+01 
-1.7394182e-01 6.3847917e-01 4.3193501e+01 
-4.3632734e-01 9.6405929e-01 4.3091995e+01 
4.0275589e-01 3.6612594e-01 4.3787510e+01 
1.2304078e-01 5.5709994e-01 4.3330139e+01 
-2.7917209e-01 7.2055119e-01 4.3125000e+01 
2.5336364e-01 4.4907436e-01 4.3468094e+01 
2.3670304e-01 4.1684708e-01 4.3469433e+01 
1.3086085e-01 4.6634668e-01 4.3336948e+01 
-3.8351217e-01 8.3473074e-01 4.3036392e+01 
-3.2194808e-01 9.2160189e-01 4.3028820e+01 
2.5518833e-02 6.5462554e-01 4.3151749e+01 
-8.3235659e-02 7.6635528e-01 4.3082981e+01 
4.1474071e-01 3.5781288e-01 4.3581264e+01 
-1.8654740e-01 8.4590012e-01 4.3015797e+01 
-3.2522827e-02 5.5011308e-01 4.3120937e+01 
-1.7067213e-01 6.3479382e-01 4.3049488e+01 
-4.3632668e-01 9.6405542e-01 4.2965172e+01 
-2.7765438e-01 7.1817529e-01 4.2979721e+01 
2.6620242e-01 4.4011977e-01 4.3261948e+01 
1.3584816e-02 6.7044950e-01 4.3025066e+01 
-3.2081014e-01 9.2191011e-01 4.2901604e+01 
-3.8160574e-01 8.3169121e-01 4.2902863e+01 
-7.8566879e-02 7.6482886e-01 4.2940315e+01 
-5.0480481e-02 5.5910730e-01 4.2990566e+01 
4.2671782e-01 3.4949207e-01 4.3375019e+01 
1.6821145e-01 5.2049083e-01 4.3083881e+01 
-1.8336046e-01 8.4576881e-01 4.2871841e+01 
-4.3632606e-01 9.6405160e-01 4.2837555e+01 
-1.6731077e-01 6.3101834e-01 4.2902817e+01 
1.4768846e-01 4.5400122e-01 4.3051926e+01 
-2.7610970e-01 7.1575516e-01 4.2831745e+01 
-3.1966189e-01 9.2221189e-01 4.2773579e+01 
-3.8560396e-01 8.3684862e-01 4.2767078e+01 
3.7660085e-02 6.4738947e-01 4.2866421e+01 
-7.3788933e-02 7.6323271e-01 4.2794899e+01 
4.3868470e-01 3.4116083e-01 4.3168777e+01 
-4.3632543e-01 9.6404779e-01 4.2709122e+01 
-2.0968946e-02 5.3986710e-01 4.2827656e+01 
-1.8011902e-01 8.4562629e-01 4.2725094e+01 
-1.6385415e-01 6.2714905e-01 4.2753403e+01 
-2.7453732e-01 7.1328926e-01 4.2680973e+01 
-3.1850323e-01 9.2250693e-01 4.2644733e+01 
-3.9907700e-01 8.5570478e-01 4.2643101e+01 
2.5504474e-02 6.6361672e-01 4.2734810e+01 
1.8471870e-01 5.0880390e-01 4.2796177e+01 
-6.8898737e-02 7.6156229e-01 4.2646645e+01 
-3.9438177e-02 5.4903054e-01 4.2692345e+01 
-4.3632481e-01 9.6404403e-01 4.2579861e+01 
4.5063871e-01 3.3281663e-01 4.2962532e+01 
1.6565691e-01 4.4095638e-01 4.2756321e+01 
-1.7682223e-01 8.4547096e-01 4.2575459e+01 
-1.6029853e-01 6.2318206e-01 4.2601143e+01 
-4.0415615e-01 8.6278629e-01 4.2516582e+01 
-3.1733403e-01 9.2279470e-01 4.2515053e+01 
-2.7293649e-01 7.1077597e-01 4.2527313e+01 
5.0482783e-02 6.3954860e-01 4.2569923e+01 
-4.3632418e-01 9.6404034e-01 4.2449757e+01 
-6.3893095e-02 7.5981271e-01 4.2495445e+01 
-8.6617703e-03 5.2904755e-01 4.2523201e+01 
-1.7346917e-01 8.4530097e-01 4.2422829e+01 
-1.5663996e-01 6.1911333e-01 4.2445942e+01 
3.0435190e-01 4.1341871e-01 4.2643494e+01 
4.6257737e-01 3.2445681e-01 4.2756287e+01 
-3.1615424e-01 9.2307472e-01 4.2384518e+01 
-3.9902648e-01 8.5475212e-01 4.2382885e+01 
-2.7130640e-01 7.0821363e-01 4.2370659e+01 
3.8079392e-02 6.5619886e-01 4.2433029e+01 
2.0230262e-01 4.9620378e-01 4.2497147e+01 
-4.3632355e-01 9.6403670e-01 4.2318787e+01 
-5.8768708e-02 7.5797862e-01 4.2341198e+01 
-2.7680276e-02 5.3838593e-01 4.2382599e+01 
1.8486446e-01 4.2715022e-01 4.2449394e+01 
-3.8436696e-01 8.3356136e-01 4.2264896e+01 
8.9545198e-02 5.3233254e-01 4.2382050e+01 
-3.3225983e-01 9.3122375e-01 4.2255634e+01 
-1.7005907e-01 8.4511453e-01 4.2267101e+01 
-1.5287429e-01 6.1493850e-01 4.2287693e+01 
4.7449806e-01 3.1607881e-01 4.2550037e+01 
-2.6964626e-01 7.0560038e-01 4.2210907e+01 
-4.3632296e-01 9.6403313e-01 4.2186939e+01 
6.4036883e-02 6.3103610e-01 4.2261456e+01 
-5.3522192e-02 7.5605446e-01 4.2183796e+01 
-3.7873057e-01 8.2541841e-01 4.2124020e+01 
-3.1376252e-01 9.2360973e-01 4.2120819e+01 
4.4639236e-03 5.1760370e-01 4.2206776e+01 
-1.6659111e-01 8.4490943e-01 4.2108162e+01 
-1.4899719e-01 6.1065292e-01 4.2126286e+01 
-4.3632239e-01 9.6402961e-01 4.2054195e+01 
4.8639825e-01 3.0768004e-01 4.2343792e+01 
-2.6795524e-01 7.0293444e-01 4.2047943e+01 
2.4746621e-01 4.6040925e-01 4.2191032e+01 
7.1105182e-02 6.2650448e-01 4.2102463e+01 
-3.1255043e-01 9.2386365e-01 4.1987617e+01 
-4.8150036e-02 7.5403398e-01 4.2023121e+01 
-1.5144684e-02 5.2712250e-01 4.2060505e+01 
-3.7995064e-01 8.2661813e-01 4.1980038e+01 
2.0541981e-01 4.1251117e-01 4.2130333e+01 
-1.6306458e-01 8.4468329e-01 4.1945896e+01 
-4.3632182e-01 9.6402621e-01 4.1920536e+01 
-1.4500406e-01 6.0625184e-01 4.1961609e+01 
1.3375351e-01 5.6370503e-01 4.1969833e+01 
-2.6623246e-01 7.0021385e-01 4.1881653e+01 
-3.1132740e-01 9.2410773e-01 4.1853493e+01 
-3.9880505e-01 8.5261923e-01 4.1851868e+01 
4.9827534e-01 2.9925787e-01 4.2137547e+01 
3.4194937e-01 3.8685825e-01 4.2025021e+01 
-4.2648647e-02 7.5191063e-01 4.1859051e+01 
-2.5401810e-01 7.9503769e-01 4.1808533e+01 
1.8480448e-02 5.0547802e-01 4.1877510e+01 
-4.3632126e-01 9.6402287e-01 4.1785946e+01 
-1.5947884e-01 8.4443361e-01 4.1780174e+01 
-1.4089009e-01 6.0172999e-01 4.1793541e+01 
-3.1009343e-01 9.2434150e-01 4.1718426e+01 
-4.0306881e-01 8.5845691e-01 4.1716179e+01 
8.5861288e-02 6.1683756e-01 4.1774368e+01 
-2.6447710e-01 6.9743657e-01 4.1711910e+01 
3.0427080e-01 4.1638452e-01 4.1839512e+01 
2.6751360e-01 3.7833902e-01 4.1830902e+01 
5.1012677e-01 2.9080975e-01 4.1931297e+01 
-3.7014309e-02 7.4967718e-01 4.1691463e+01 
-4.3632072e-01 9.6401966e-01 4.1650398e+01 
2.5847588e-02 4.9913955e-01 4.1707767e+01 
-1.5583332e-01 8.4415752e-01 4.1610870e+01 
-3.8322043e-01 8.2981020e-01 4.1595791e+01 
-3.0884841e-01 9.2456430e-01 4.1582397e+01 
-1.3665022e-01 5.9708190e-01 4.1621960e+01 
9.3565010e-02 6.1167872e-01 4.1605015e+01 
-2.6268822e-01 6.9460052e-01 4.1538593e+01 
-4.3632022e-01 9.6401656e-01 4.1513885e+01 
-3.1243213e-02 7.4732590e-01 4.1520226e+01 
2.7603787e-01 3.7115356e-01 4.1624012e+01 
2.8505871e-01 4.3281260e-01 4.1611507e+01 
5.2195001e-01 2.8233302e-01 4.1725052e+01 
3.3468332e-02 4.9260557e-01 4.1534447e+01 
-3.9853087e-01 8.5081697e-01 4.1443768e+01 
-3.2560509e-01 9.3245691e-01 4.1443577e+01 
-1.5212752e-01 8.4385180e-01 4.1437847e+01 
-1.3227913e-01 5.9230179e-01 4.1446728e+01 
-4.3631971e-01 9.6401358e-01 4.1376381e+01 
[...]
POINT_DATA 6166
FIELD FieldData 5
DISPLACEMENT 3 6166  float
-1.0586421e-01 -9.6449904e-02 -5.3232966e-04 
-1.0518093e-01 -9.5767915e-02 -5.2847213e-04 
-1.0583474e-01 -9.6382678e-02 -1.7029300e-04 
-1.0578991e-01 -9.6418619e-02 -9.4178744e-04 
-1.0481282e-01 -9.5364504e-02 -1.8189615e-04 
-1.0479134e-01 -9.5422454e-02 -9.4097492e-04 
-1.0449383e-01 -9.5082127e-02 -5.2459864e-04 
-1.0579623e-01 -9.6318863e-02 7.2616473e-05 
-1.0572868e-01 -9.6361898e-02 -9.8319422e-04 
-1.0509995e-01 -9.5622323e-02 9.1667542e-05 
-1.0500846e-01 -9.5643491e-02 -9.8330178e-04 
-1.0412403e-01 -9.4676204e-02 -1.7001816e-04 
-1.0402786e-01 -9.4660074e-02 -9.3360769e-04 
-1.0439186e-01 -9.4913989e-02 1.1103092e-04 
-1.0380284e-01 -9.4392464e-02 -5.2070810e-04 
-1.0575411e-01 -9.6262105e-02 2.1365375e-04 
-1.0427642e-01 -9.4913259e-02 -9.8340784e-04 
-1.0568379e-01 -9.6304715e-02 -8.6433190e-04 
-1.0468668e-01 -9.5194407e-02 2.4170459e-04 
-1.0458273e-01 -9.5206521e-02 -8.6549192e-04 
-1.0343133e-01 -9.3984008e-02 -1.5809327e-04 
-1.0332538e-01 -9.3958735e-02 -9.2799996e-04 
-1.0367158e-01 -9.4193481e-02 1.3070847e-04 
-1.0353217e-01 -9.4170853e-02 -9.8350656e-04 
-1.0310791e-01 -9.3698867e-02 -5.1679660e-04 
-1.0397158e-01 -9.4479002e-02 2.6191943e-04 
-1.0569917e-01 -9.6205212e-02 2.3382770e-04 
-1.0384376e-01 -9.4469182e-02 -8.6365838e-04 
-1.0564174e-01 -9.6237183e-02 -6.1930116e-04 
-1.0273465e-01 -9.3287840e-02 -1.4612591e-04 
-1.0268687e-01 -9.3318723e-02 -8.9857675e-04 
-1.0293874e-01 -9.3460433e-02 1.5069760e-04 
-1.0426117e-01 -9.4767392e-02 2.6660811e-04 
-1.0324409e-01 -9.3751222e-02 2.8244409e-04 
-1.0277533e-01 -9.3415901e-02 -9.8358921e-04 
-1.0416227e-01 -9.4758511e-02 -5.9171329e-04 
-1.0485145e-01 -9.5358491e-02 2.4457971e-04 
-1.0309236e-01 -9.3719453e-02 -8.6172455e-04 
-1.0240898e-01 -9.3001254e-02 -5.1285501e-04 
-1.0479631e-01 -9.5376790e-02 -4.5598042e-04 
-1.0362414e-01 -9.4129622e-02 2.8891087e-04 
-1.0350062e-01 -9.4102934e-02 -6.3407613e-04 
-1.0563751e-01 -9.6140578e-02 2.6375550e-04 
-1.0559937e-01 -9.6159339e-02 -2.7888067e-04 
-1.0203392e-01 -9.2587672e-02 -1.3409159e-04 
-1.0198576e-01 -9.2619166e-02 -8.9667505e-04 
-1.0219295e-01 -9.2714459e-02 1.7099520e-04 
-1.0250381e-01 -9.3010671e-02 3.0328304e-04 
-1.0200550e-01 -9.2647985e-02 -9.8366884e-04 
-1.0232816e-01 -9.2956960e-02 -8.5970206e-04 
-1.0170595e-01 -9.2299633e-02 -5.0891034e-04 
-1.0280418e-01 -9.3310498e-02 3.0110884e-04 
-1.0265844e-01 -9.3257040e-02 -5.7819049e-04 
-1.0383908e-01 -9.4340466e-02 3.2298375e-04 
-1.0477313e-01 -9.5268764e-02 3.5550748e-04 
-1.0473917e-01 -9.5273614e-02 -1.4501788e-05 
-1.0375389e-01 -9.4306327e-02 -1.6292435e-04 
-1.0129251e-01 -9.1925703e-02 -8.7810494e-04 
-1.0132908e-01 -9.1883406e-02 -1.2205915e-04 
-1.0175034e-01 -9.2256963e-02 3.2441839e-04 
-1.0214446e-01 -9.2650019e-02 3.2458425e-04 
-1.0143378e-01 -9.1955118e-02 1.9159696e-04 
-1.0557514e-01 -9.6063763e-02 4.0345619e-04 
-1.0555631e-01 -9.6071318e-02 1.5177425e-04 
-1.0155077e-01 -9.2181288e-02 -8.5755216e-04 
-1.0197394e-01 -9.2578843e-02 -6.2190788e-04 
-1.0122233e-01 -9.1866761e-02 -9.8369818e-04 
-1.0099884e-01 -9.1593876e-02 -5.0492404e-04 
-1.0236873e-01 -9.2870407e-02 3.5612230e-04 
-1.0062014e-01 -9.1175064e-02 -1.0993175e-04 
-1.0057122e-01 -9.1207780e-02 -8.9296076e-04 
-1.0098327e-01 -9.1489688e-02 3.4585060e-04 
-1.0223784e-01 -9.2790999e-02 -1.3309544e-04 
-1.0066085e-01 -9.1182061e-02 2.1249203e-04 
-1.0129514e-01 -9.1801710e-02 3.3647049e-04 
-1.0075977e-01 -9.1392048e-02 -8.5528212e-04 
-1.0042532e-01 -9.1071755e-02 -9.8375254e-04 
-1.0110257e-01 -9.1703609e-02 -5.6350179e-04 
-1.0028751e-01 -9.0884000e-02 -5.0094060e-04 
-1.0552237e-01 -9.5968962e-02 8.0636475e-04 
-1.0434634e-01 -9.4792992e-02 8.3410379e-04 
-9.9906936e-02 -9.0462469e-02 -9.7798802e-05 
-9.9857658e-02 -9.0495825e-02 -8.9112238e-04 
-1.0020216e-01 -9.0708457e-02 3.6757661e-04 
-1.0052010e-01 -9.1026857e-02 3.5444854e-04 
-1.0039384e-01 -9.1001384e-02 -6.0864922e-04 
-9.9873647e-02 -9.0394832e-02 2.3367537e-04 
-9.9954762e-02 -9.0588845e-02 -8.5289351e-04 
-9.9571921e-02 -9.0169854e-02 -4.9693097e-04 
-1.0317035e-01 -9.3617111e-02 8.6178567e-04 
-1.0068553e-01 -9.1190360e-02 3.6872798e-04 
-9.9614114e-02 -9.0262622e-02 -9.8374858e-04 
-1.0140500e-01 -9.1894962e-02 4.9298583e-04 
-1.0139271e-01 -9.1911614e-02 2.1587308e-04 
-1.0066906e-01 -9.1222942e-02 -1.0082348e-04 
-9.9178784e-02 -8.9822493e-02 -9.2714577e-04 
-9.9189438e-02 -8.9745693e-02 -8.5669650e-05 
-9.9730782e-02 -9.0237841e-02 3.7261832e-04 
-9.9406593e-02 -8.9912809e-02 3.8959854e-04 
-1.0199449e-01 -9.2441455e-02 8.8937109e-04 
-9.9071838e-02 -8.9593023e-02 2.5521507e-04 
-9.9491447e-02 -9.0095058e-02 -5.4747862e-04 
-9.9135257e-02 -8.9771263e-02 -8.5040939e-04 
-9.8852038e-02 -8.9451484e-02 -4.9291062e-04 
-9.8788247e-02 -8.9438893e-02 -9.8372425e-04 
-1.0022969e-01 -9.0719901e-02 5.2168366e-04 
-9.9021293e-02 -8.9527644e-02 3.9839812e-04 
-9.8467588e-02 -8.9024641e-02 -7.3450006e-05 
-9.8419152e-02 -8.9065097e-02 -9.2915242e-04 
-9.8596096e-02 -8.9102328e-02 4.1187715e-04 
-9.8756924e-02 -8.9367345e-02 -5.9421407e-04 
-1.0081911e-01 -9.1266491e-02 9.1675296e-04 
-9.9266388e-02 -8.9769207e-02 4.2583246e-04 
-9.8254874e-02 -8.8776134e-02 2.7699958e-04 
-9.8127678e-02 -8.8728756e-02 -4.8888841e-04 
-9.8300874e-02 -8.8938817e-02 -8.4771769e-04 
-9.9044397e-02 -8.9599028e-02 -6.5812448e-05 
-9.7947232e-02 -8.8600181e-02 -9.8364172e-04 
-9.7741298e-02 -8.8299200e-02 -6.1276551e-05 
-9.7651824e-02 -8.8298656e-02 -9.1814680e-04 
-9.8107569e-02 -8.8615447e-02 4.0951173e-04 
-9.7770214e-02 -8.8276528e-02 4.3443168e-04 
-9.9643648e-02 -9.0091437e-02 9.4404374e-04 
-9.7398922e-02 -8.8001683e-02 -4.8481373e-04 
-9.7821556e-02 -8.8427968e-02 -5.3009385e-04 
-9.7422302e-02 -8.7943800e-02 2.9904977e-04 
-9.7451046e-02 -8.8091128e-02 -8.4494369e-04 
-9.7090699e-02 -8.7745994e-02 -9.8345068e-04 
-9.7010583e-02 -8.7569408e-02 -4.9101036e-05 
-9.6959844e-02 -8.7605067e-02 -8.8386476e-04 
-9.7370759e-02 -8.7878019e-02 4.3635699e-04 
-9.7627498e-02 -8.8131256e-02 4.6249953e-04 
-9.6928455e-02 -8.7435007e-02 4.5716201e-04 
-9.7059578e-02 -8.7673202e-02 -5.7853392e-04 
-9.6665807e-02 -8.7270223e-02 -4.8065445e-04 
-9.8468773e-02 -8.8917188e-02 9.7107055e-04 
-9.7360156e-02 -8.7915629e-02 -2.7925311e-05 
-9.6573703e-02 -8.7095559e-02 3.2133283e-04 
-9.6585497e-02 -8.7227702e-02 -8.4188115e-04 
-9.6246615e-02 -8.6892374e-02 -8.6840114e-04 
-9.6275441e-02 -8.6835355e-02 -3.6793728e-05 
-9.6218139e-02 -8.6875878e-02 -9.8331727e-04 
-9.6421838e-02 -8.6930990e-02 4.4694424e-04 
-9.5928118e-02 -8.6534403e-02 -4.7655881e-04 
-9.6070446e-02 -8.6577415e-02 4.8013535e-04 
-9.6089408e-02 -8.6699016e-02 -5.1108998e-04 
-9.5708460e-02 -8.6230822e-02 3.4388917e-04 
-9.5703751e-02 -8.6348243e-02 -8.3885971e-04 
-9.6706361e-02 -8.7198116e-02 6.0651579e-04 
-9.7294517e-02 -8.7743826e-02 9.9784648e-04 
-9.5535733e-02 -8.6096622e-02 -2.4506331e-05 
-9.5484257e-02 -8.6133428e-02 -8.8015216e-04 
-9.5329009e-02 -8.5989393e-02 -9.8314194e-04 
-9.5656045e-02 -8.6164810e-02 4.7496555e-04 
-9.5925331e-02 -8.6430587e-02 5.0027814e-04 
-9.5185906e-02 -8.5794002e-02 -4.7235654e-04 
-9.5195413e-02 -8.5702911e-02 5.0340191e-04 
-9.5298290e-02 -8.5915521e-02 -5.6141813e-04 
-9.5612898e-02 -8.6169653e-02 1.3047914e-05 
-9.4803400e-02 -8.5457988e-02 -9.1257517e-04 
-9.5293358e-02 -8.5845366e-02 6.8794616e-05 
-9.4810188e-02 -8.5377708e-02 -6.5886466e-05 
-9.4826169e-02 -8.5349128e-02 3.6670323e-04 
-9.4804935e-02 -8.5451938e-02 -8.3546981e-04 
-9.6120775e-02 -8.6571023e-02 1.0243673e-03 
-9.4422817e-02 -8.5086063e-02 -9.8278257e-04 
-9.4439141e-02 -8.5049279e-02 -4.6815409e-04 
-9.4669424e-02 -8.5180528e-02 4.8504947e-04 
-9.4303034e-02 -8.4811129e-02 5.2683504e-04 
-9.4000973e-02 -8.4659226e-02 -9.2177524e-04 
-9.4042614e-02 -8.4605969e-02 -1.0746412e-07 
-9.4290726e-02 -8.4903985e-02 -4.9047446e-04 
-9.3926273e-02 -8.4449999e-02 3.8985614e-04 
-9.3888730e-02 -8.4538467e-02 -8.3205040e-04 
-9.3687780e-02 -8.4299974e-02 -4.6399576e-04 
-9.4947778e-02 -8.5399345e-02 1.0504819e-03 
-9.3499012e-02 -8.4165290e-02 -9.8243426e-04 
-9.4171070e-02 -8.4675767e-02 5.6358334e-04 
-9.3767047e-02 -8.4279209e-02 5.0429942e-04 
-9.3289018e-02 -8.3853923e-02 1.2205077e-05 
-9.3392648e-02 -8.3901607e-02 5.5033684e-04 
-9.3468547e-02 -8.4090009e-02 -5.4274738e-04 
-9.3186952e-02 -8.3847523e-02 -9.1699010e-04 
-9.3798153e-02 -8.4356420e-02 5.7316480e-05 
-9.3008161e-02 -8.3532818e-02 4.1307142e-04 
-9.2931457e-02 -8.3546035e-02 -4.5985213e-04 
-9.2954762e-02 -8.3607413e-02 -8.2821003e-04 
-9.2980191e-02 -8.3494894e-02 5.0872169e-04 
-9.2557207e-02 -8.3226852e-02 -9.8187570e-04 
-9.2530675e-02 -8.3097190e-02 2.4316543e-05 
-9.2477575e-02 -8.3136052e-02 -8.7268616e-04 
-9.3776040e-02 -8.4229298e-02 1.0761668e-03 
-9.3189582e-02 -8.3684966e-02 6.8832561e-04 
-9.2463911e-02 -8.2973957e-02 5.7392148e-04 
-9.2200734e-02 -8.2809620e-02 -3.7671175e-04 
-9.2421599e-02 -8.3039261e-02 -4.6797001e-04 
-9.2170626e-02 -8.2787745e-02 -4.5571380e-04 
-9.2071496e-02 -8.2597554e-02 4.3612570e-04 
-9.2002645e-02 -8.2658365e-02 -8.2395814e-04 
-9.1767661e-02 -8.2336068e-02 3.6453901e-05 
-9.1714598e-02 -8.2374766e-02 -8.5904985e-04 
-9.1906860e-02 -8.2422249e-02 5.4242945e-04 
-9.1596901e-02 -8.2270227e-02 -9.8109397e-04 
-9.2158109e-02 -8.2661673e-02 6.4725312e-04 
-9.2086084e-02 -8.2633376e-02 2.2586218e-04 
-9.2604883e-02 -8.3059743e-02 1.1014049e-03 
-9.1516398e-02 -8.2027838e-02 5.9750839e-04 
-9.1405176e-02 -8.2024954e-02 -4.5126065e-04 
-9.1459654e-02 -8.2079917e-02 -4.5564852e-04 
-9.1115825e-02 -8.1643477e-02 4.5939864e-04 
-9.1018490e-02 -8.1686065e-02 -9.0335537e-04 
-9.1000274e-02 -8.1570789e-02 4.8357018e-05 
-9.1031559e-02 -8.1691034e-02 -8.1982999e-04 
-9.0948522e-02 -8.1465930e-02 5.6181540e-04 
-9.0617843e-02 -8.1295162e-02 -9.8031561e-04 
-9.0635531e-02 -8.1257984e-02 -4.4689749e-04 
-9.0549260e-02 -8.1062652e-02 6.2112504e-04 
-9.0914637e-02 -8.1465364e-02 2.4028530e-04 
-9.0881072e-02 -8.1391007e-02 6.3765101e-04 
-9.1435619e-02 -8.1892811e-02 1.1259775e-03 
-9.0478532e-02 -8.1101850e-02 -4.4309994e-04 
-9.0174235e-02 -8.0841407e-02 -8.6654321e-04 
-9.0222448e-02 -8.0800854e-02 2.1938092e-06 
-9.0140305e-02 -8.0670148e-02 4.8299637e-04 
-9.0041392e-02 -8.0704793e-02 -8.1515271e-04 
-8.9860819e-02 -8.0486298e-02 -4.4271001e-04 
-9.0095252e-02 -8.0616117e-02 5.6702731e-04 
-8.9619130e-02 -8.0300853e-02 -9.7925251e-04 
-8.9562252e-02 -8.0077916e-02 6.4481230e-04 
-8.9451469e-02 -8.0026597e-02 7.2505107e-05 
-8.9396648e-02 -8.0067463e-02 -8.6452253e-04 
-8.9477941e-02 -8.0104664e-02 -4.2986419e-04 
-8.9798070e-02 -8.0348745e-02 2.9163394e-04 
-9.0268202e-02 -8.0728203e-02 1.1502469e-03 
-8.9144759e-02 -7.9677023e-02 5.0656515e-04 
-8.9645512e-02 -8.0155529e-02 6.9444487e-04 
-8.9081250e-02 -7.9710335e-02 -4.3882491e-04 
-8.9031354e-02 -7.9699174e-02 -8.1023003e-04 
-8.9056082e-02 -7.9580337e-02 5.8538426e-04 
-8.8669665e-02 -7.9247713e-02 8.4331878e-05 
-8.8614479e-02 -7.9289369e-02 -8.6254685e-04 
-8.8600375e-02 -7.9287112e-02 -9.7820815e-04 
-8.8554583e-02 -7.9073034e-02 6.6856795e-04 
-8.8457204e-02 -7.9087846e-02 -4.1606990e-04 
-8.8296957e-02 -7.8929998e-02 -4.3461667e-04 
-8.8684469e-02 -7.9243198e-02 2.7001972e-04 
-8.9102827e-02 -7.9566129e-02 1.1738568e-03 
-8.8128179e-02 -7.8663476e-02 5.3023029e-04 
-8.8000774e-02 -7.8673631e-02 -8.0506649e-04 
-8.8511124e-02 -7.9023868e-02 7.2677451e-04 
-8.7883160e-02 -7.8464314e-02 9.6028089e-05 
-8.7827757e-02 -7.8506649e-02 -8.6056005e-04 
-8.7982066e-02 -7.8510165e-02 6.0569571e-04 
-8.7560736e-02 -7.8253232e-02 -9.7700756e-04 
-8.7508060e-02 -7.8144886e-02 -4.3019486e-04 
-8.7525487e-02 -7.8047417e-02 6.9230719e-04 
-8.7415591e-02 -7.8050673e-02 -4.0172637e-04 
-8.7092102e-02 -7.7676691e-02 1.0775064e-04 
-8.7036148e-02 -7.7719197e-02 -8.5877563e-04 
-8.7089881e-02 -7.7629007e-02 5.5410183e-04 
-8.7939568e-02 -7.8406848e-02 1.1967075e-03 
-8.6949006e-02 -7.7627569e-02 -7.9960475e-04 
-8.7369658e-02 -7.7937752e-02 2.5139938e-04 
-8.7385684e-02 -7.7901289e-02 7.6046173e-04 
-8.6714081e-02 -7.7355333e-02 -4.2622123e-04 
-8.6891785e-02 -7.7424318e-02 6.2574114e-04 
-8.6499661e-02 -7.7198602e-02 -9.7545568e-04 
-8.6474515e-02 -7.7000566e-02 7.1574381e-04 
-8.6505719e-02 -7.7137418e-02 -3.1418301e-04 
-8.6295538e-02 -7.6884121e-02 1.1941089e-04 
-8.6239658e-02 -7.6927774e-02 -8.5628394e-04 
-8.6029463e-02 -7.6573089e-02 5.7761866e-04 
-8.6778641e-02 -7.7250212e-02 1.2197697e-03 
-8.5915461e-02 -7.6561622e-02 -4.2138906e-04 
-8.5875750e-02 -7.6560661e-02 -7.9385092e-04 
-8.6248420e-02 -7.6769195e-02 7.7920448e-04 
-8.6101040e-02 -7.6665930e-02 3.5945221e-04 
-8.5804097e-02 -7.6341629e-02 6.4521219e-04 
-8.5494779e-02 -7.6087683e-02 1.3145449e-04 
-8.5438080e-02 -7.6131590e-02 -8.5392839e-04 
-8.5416973e-02 -7.6122925e-02 -9.7419549e-04 
-8.5401088e-02 -7.5932063e-02 7.3900435e-04 
-8.5417129e-02 -7.6049387e-02 -2.4866016e-04 
-8.5111700e-02 -7.5762995e-02 -4.1689875e-04 
-8.4946752e-02 -7.5495355e-02 6.0107460e-04 
-8.4877871e-02 -7.5519897e-02 -3.0902706e-04 
-8.5620247e-02 -7.6097228e-02 1.2417174e-03 
-8.4780306e-02 -7.5472295e-02 -7.8779075e-04 
-8.5128672e-02 -7.5656667e-02 7.8037579e-04 
-8.4688798e-02 -7.5286433e-02 1.4250063e-04 
-8.4631585e-02 -7.5330406e-02 -8.5189106e-04 
-8.4708020e-02 -7.5251125e-02 6.6597061e-04 
-8.4948204e-02 -7.5514868e-02 4.1713816e-04 
-8.4311649e-02 -7.5025432e-02 -9.7229419e-04 
-8.4303141e-02 -7.4959889e-02 -4.1295213e-04 
-8.4304385e-02 -7.4841022e-02 7.6230819e-04 
-8.4292725e-02 -7.4931093e-02 -2.2582874e-04 
-8.3877727e-02 -7.4480273e-02 1.5416280e-04 
-8.3820775e-02 -7.4525438e-02 -8.4952457e-04 
-8.3839528e-02 -7.4394569e-02 6.2420330e-04 
-8.4463619e-02 -7.4946389e-02 1.2632550e-03 
-8.3661824e-02 -7.4361727e-02 -7.8124827e-04 
-8.3998553e-02 -7.4532896e-02 7.9796615e-04 
-8.3489656e-02 -7.4152276e-02 -4.0829758e-04 
-8.3593726e-02 -7.4143492e-02 6.8596104e-04 
-8.3817400e-02 -7.4385218e-02 4.8812202e-04 
-8.3233863e-02 -7.3860988e-02 -3.2805096e-05 
-8.3182879e-02 -7.3905617e-02 -9.7080128e-04 
-8.3183527e-02 -7.3726892e-02 7.8517682e-04 
-8.3061904e-02 -7.3670462e-02 1.6582369e-04 
-8.3130263e-02 -7.3773362e-02 -1.7949748e-04 
-8.2890883e-02 -7.3607028e-02 -8.8627212e-04 
-8.2708582e-02 -7.3270783e-02 6.4751232e-04 
-8.2670704e-02 -7.3340185e-02 -4.0397182e-04 
-8.3310753e-02 -7.3800564e-02 1.2836125e-03 
-8.2514450e-02 -7.3217303e-02 -7.1394542e-04 
-8.2834572e-02 -7.3378384e-02 8.0285390e-04 
-8.2508564e-02 -7.3064774e-02 7.1113912e-04 
-8.2720928e-02 -7.3285341e-02 6.1258354e-04 
-8.2243562e-02 -7.2858602e-02 1.7353422e-04 
-8.2185984e-02 -7.2904095e-02 -8.4376859e-04 
-8.2030445e-02 -7.2762877e-02 -9.6880348e-04 
-8.2044035e-02 -7.2595529e-02 8.0721843e-04 
-8.1852786e-02 -7.2529003e-02 -3.9941759e-04 
-8.1746608e-02 -7.2398670e-02 -1.4668003e-04 
-8.1561983e-02 -7.2132722e-02 6.7051162e-04 
-8.2162216e-02 -7.2660282e-02 1.3028288e-03 
-8.1428856e-02 -7.2050571e-02 1.7871475e-04 
-8.1371889e-02 -7.2096564e-02 -8.3887379e-04 
-8.1370965e-02 -7.2090425e-02 -7.7675539e-04 
-8.1573911e-02 -7.2146632e-02 6.3293235e-04 
-8.1434242e-02 -7.1987942e-02 8.3179126e-04 
-8.1163608e-02 -7.1730651e-02 7.3259621e-04 
-8.1040598e-02 -7.1723461e-02 -3.9455463e-04 
-8.0883406e-02 -7.1626075e-02 -9.6737826e-04 
-8.0908954e-02 -7.1468972e-02 8.2984468e-04 
-8.0695018e-02 -7.1377024e-02 -3.4172554e-04 
-8.0620252e-02 -7.1249247e-02 1.8330033e-04 
-8.0501489e-02 -7.1238108e-02 -8.7857893e-04 
-8.0434524e-02 -7.1013696e-02 6.9255166e-04 
-8.1016488e-02 -7.1523748e-02 1.3216224e-03 
-8.0233328e-02 -7.0964292e-02 -7.8075653e-04 
-8.0233939e-02 -7.0924334e-02 -3.9031648e-04 
-8.0210663e-02 -7.0784539e-02 7.5525220e-04 
-8.0353118e-02 -7.0966013e-02 3.6179539e-04 
-8.0446228e-02 -7.0998095e-02 9.4785151e-04 
-8.0054946e-02 -7.0629671e-02 7.6101912e-04 
-7.9753764e-02 -7.0507333e-02 -9.6500915e-04 
-7.9816662e-02 -7.0453390e-02 1.8740351e-04 
-7.9760358e-02 -7.0499472e-02 -8.2889601e-04 
-7.9792708e-02 -7.0361227e-02 8.5087470e-04 
-7.9567626e-02 -7.0262596e-02 -3.5735781e-04 
-7.9433411e-02 -7.0131600e-02 -3.8576403e-04 
-7.9325870e-02 -6.9914080e-02 7.1272574e-04 
-7.9874419e-02 -7.0391364e-02 1.3411150e-03 
-7.9113610e-02 -6.9856510e-02 -7.8408356e-04 
-7.9032183e-02 -6.9784507e-02 -8.8241824e-04 
-7.9020023e-02 -6.9664851e-02 1.9090496e-04 
-7.9106331e-02 -6.9689043e-02 7.7676598e-04 
-7.9305679e-02 -6.9867179e-02 9.6722983e-04 
-7.9288267e-02 -6.9879979e-02 6.7225372e-04 
-7.8641906e-02 -6.9406830e-02 -9.6257380e-04 
-7.8896999e-02 -6.9544844e-02 1.6402101e-04 
-7.8694887e-02 -6.9273181e-02 8.7063672e-04 
-7.8639425e-02 -6.9345370e-02 -3.8169581e-04 
-7.8756377e-02 -6.9342226e-02 7.8125863e-04 
-7.8458339e-02 -6.9166757e-02 -3.7214663e-04 
-7.8228958e-02 -6.8881556e-02 1.9461018e-04 
-7.8235343e-02 -6.8833768e-02 7.3248491e-04 
-7.8734122e-02 -6.9260947e-02 1.3580249e-03 
-7.8011498e-02 -6.8766929e-02 -7.8695506e-04 
-7.8001581e-02 -6.8765588e-02 -8.8839902e-04 
-7.8020446e-02 -6.8613306e-02 7.9738104e-04 
-7.7850230e-02 -6.8564981e-02 -3.7719743e-04 
-7.8167737e-02 -6.8738766e-02 9.8603335e-04 
-7.8150049e-02 -6.8751305e-02 6.9146545e-04 
-7.7547178e-02 -6.8324611e-02 -9.6004031e-04 
-7.7615388e-02 -6.8204388e-02 8.8922918e-04 
-7.7443101e-02 -6.8105064e-02 1.9752338e-04 
-7.7387743e-02 -6.8151161e-02 -8.1395387e-04 
-7.7581599e-02 -6.8251401e-02 9.7187753e-05 
-7.7621669e-02 -6.8218812e-02 7.9707196e-04 
-7.7366494e-02 -6.8089232e-02 -3.8586996e-04 
-7.7159770e-02 -6.7881420e-02 -3.6277107e-04 
-7.7163577e-02 -6.7773074e-02 7.5075100e-04 
-7.7067494e-02 -6.7790888e-02 -3.7264507e-04 
-7.7598177e-02 -6.8135656e-02 1.3744787e-03 
-7.6922104e-02 -6.7704968e-02 -9.4425731e-04 
-7.6927066e-02 -6.7695551e-02 -7.8907586e-04 
-7.6953128e-02 -6.7556843e-02 8.1691169e-04 
-7.7034809e-02 -6.7617774e-02 1.0035876e-03 
-7.7016778e-02 -6.7630112e-02 7.0985052e-04 
-7.6663941e-02 -6.7335702e-02 2.0017268e-04 
-7.6607950e-02 -6.7380711e-02 -8.0855074e-04 
-7.6555327e-02 -6.7257665e-02 -9.6254691e-05 
-7.6469488e-02 -6.7259997e-02 -9.5665758e-04 
-7.6519027e-02 -6.7207150e-02 5.0960269e-05 
-7.6554924e-02 -6.7155153e-02 9.0602209e-04 
-7.6451480e-02 -6.7134023e-02 1.1765213e-04 
-7.6491974e-02 -6.7101941e-02 8.1205461e-04 
-7.6292865e-02 -6.7030318e-02 -3.9783109e-04 
-7.6290928e-02 -6.7024171e-02 -3.6907342e-04 
-7.6146215e-02 -6.6938698e-02 -9.3856355e-04 
-7.6109707e-02 -6.6731349e-02 7.6654839e-04 
-7.5923651e-02 -6.6701315e-02 -7.6714426e-04 
-7.5859144e-02 -6.6642150e-02 -7.9122046e-04 
-7.6467246e-02 -6.7017488e-02 1.3898317e-03 
-7.5847335e-02 -6.6584669e-02 -3.4988407e-04 
-7.5890824e-02 -6.6572227e-02 2.0218157e-04 
-7.5904712e-02 -6.6520520e-02 8.3635619e-04 
-7.5906873e-02 -6.6503450e-02 1.0202875e-03 
-7.5888574e-02 -6.6515565e-02 7.2736340e-04 
-7.5521104e-02 -6.6264160e-02 -3.6446686e-04 
-7.5409763e-02 -6.6214480e-02 -9.5352682e-04 
-7.5510882e-02 -6.6124126e-02 9.2182664e-04 
-7.5235657e-02 -6.5989219e-02 -4.1157589e-04 
-7.5326502e-02 -6.6021942e-02 1.3874478e-04 
-7.5367153e-02 -6.5990902e-02 8.2742400e-04 
-7.5124502e-02 -6.5816320e-02 2.0465424e-04 
-7.5058408e-02 -6.5802395e-02 -3.0246872e-04 
-7.5069018e-02 -6.5861888e-02 -7.9745363e-04 
-7.5073600e-02 -6.5707736e-02 7.8266539e-04 
-7.4808411e-02 -6.5605864e-02 -7.9276960e-04 
-7.5341590e-02 -6.5905817e-02 1.4039899e-03 
-7.4873224e-02 -6.5501571e-02 8.5349468e-04 
-7.4757010e-02 -6.5510765e-02 -3.6085662e-04 
-7.4613966e-02 -6.5426879e-02 -9.2980155e-04 
-7.4435294e-02 -6.5145135e-02 1.2201286e-04 
-7.4485898e-02 -6.5112017e-02 9.3660987e-04 
-7.4365981e-02 -6.5185204e-02 -9.4979693e-04 
-7.4784279e-02 -6.5394938e-02 1.0360022e-03 
-7.4765734e-02 -6.5406725e-02 7.4386690e-04 
-7.4334621e-02 -6.5088816e-02 -3.0179336e-04 
-7.4357972e-02 -6.5081649e-02 8.2953380e-07 
-7.4363224e-02 -6.5066248e-02 2.0672382e-04 
-7.4308433e-02 -6.5112181e-02 -7.9238857e-04 
-7.4194804e-02 -6.4965039e-02 -4.2340692e-04 
-7.4205860e-02 -6.4916134e-02 1.5795870e-04 