# vtk DataFile Version 4.0
vtk output
ASCII
DATASET UNSTRUCTURED_GRID
POINTS 6166 float
-4.3633327e-01 9.6409470e-01 4.4200001e+01 
-4.3633261e-01 9.6409082e-01 4.4079685e+01 
-3.2145375e-01 9.1276109e-01 4.4200001e+01 
-3.8566181e-01 8.4097892e-01 4.4200001e+01 
-3.3069235e-01 9.1895354e-01 4.4019413e+01 
-3.8473952e-01 8.3919770e-01 4.4024357e+01 
-4.3633196e-01 9.6408689e-01 4.3958702e+01 
-2.1293370e-01 8.4677851e-01 4.4200001e+01 
-2.9042658e-01 7.3813015e-01 4.4200001e+01 
-2.1019450e-01 8.4669626e-01 4.4077393e+01 
-2.8909999e-01 7.3605996e-01 4.4073399e+01 
-3.2963324e-01 9.1929907e-01 4.3898094e+01 
-3.8679782e-01 8.4179753e-01 4.3889645e+01 
-2.0740938e-01 8.4661204e-01 4.3952713e+01 
-4.3633130e-01 9.6408290e-01 4.3837040e+01 
-1.1677200e-01 7.7521002e-01 4.4200001e+01 
-2.8775173e-01 7.3395580e-01 4.3944717e+01 
-1.9365783e-01 6.6203654e-01 4.4200001e+01 
-1.1309985e-01 7.7540898e-01 4.4012005e+01 
-1.9181472e-01 6.5888047e-01 4.4006447e+01 
-3.2856464e-01 9.1964108e-01 4.3776085e+01 
-3.8823184e-01 8.4352189e-01 4.3765770e+01 
-2.0457739e-01 8.4652513e-01 4.3825886e+01 
-2.8638119e-01 7.3181647e-01 4.3813885e+01 
-4.3633065e-01 9.6407896e-01 4.3714680e+01 
-1.0911675e-01 7.7426714e-01 4.3886200e+01 
-2.1001574e-02 6.8269837e-01 4.4200001e+01 
-1.8902887e-01 6.5566909e-01 4.3876659e+01 
-7.8887597e-02 5.9015810e-01 4.4200001e+01 
-3.2748649e-01 9.1997939e-01 4.3653378e+01 
-3.9889076e-01 8.5876143e-01 4.3651733e+01 
-2.0169757e-01 8.4643483e-01 4.3696846e+01 
-7.2496021e-03 6.7325598e-01 4.3947758e+01 
-1.0504345e-01 7.7307969e-01 4.3758209e+01 
-2.8498772e-01 7.2964084e-01 4.3680840e+01 
-6.3224643e-02 5.7783771e-01 4.3940754e+01 
3.5808440e-02 6.2679136e-01 4.4056572e+01 
-1.8616955e-01 6.5238589e-01 4.3744686e+01 
-4.3632996e-01 9.6407503e-01 4.3591618e+01 
-9.8678423e-03 5.4892725e-01 4.4055367e+01 
-1.8652271e-02 6.8798620e-01 4.3834026e+01 
-7.9845116e-02 5.8636194e-01 4.3823372e+01 
8.7777540e-02 5.7885915e-01 4.4200001e+01 
5.3622175e-02 5.1732427e-01 4.4200001e+01 
-3.2639861e-01 9.2031354e-01 4.3529953e+01 
-3.9894739e-01 8.5844576e-01 4.3528313e+01 
-1.9876897e-01 8.4634024e-01 4.3565521e+01 
-1.0087753e-01 7.7184403e-01 4.3627972e+01 
-2.8357074e-01 7.2742778e-01 4.3545506e+01 
-1.8323407e-01 6.4902818e-01 4.3610458e+01 
-4.3632931e-01 9.6407109e-01 4.3467831e+01 
3.1033519e-03 6.6751039e-01 4.3691772e+01 
-5.3600248e-02 5.6906003e-01 4.3676846e+01 
1.2436585e-01 5.5082864e-01 4.3886215e+01 
1.7079005e-01 5.1095647e-01 4.4054855e+01 
1.4951277e-01 4.6697062e-01 4.4053665e+01 
1.0028158e-01 4.8915190e-01 4.3877911e+01 
-4.0513036e-01 8.6722642e-01 4.3405304e+01 
-3.2530096e-01 9.2064321e-01 4.3405800e+01 
-9.6616447e-02 7.7055699e-01 4.3495411e+01 
-8.4563000e-03 6.8258613e-01 4.3574005e+01 
-1.9579062e-01 8.4624058e-01 4.3431831e+01 
2.1753120e-01 4.7335833e-01 4.4200001e+01 
2.0360756e-01 4.4289169e-01 4.4200001e+01 
-1.8021962e-01 6.4559317e-01 4.3473904e+01 
-7.0636064e-02 5.7773441e-01 4.3555408e+01 
-2.8212959e-01 7.2517604e-01 4.3407806e+01 
-4.3632865e-01 9.6406716e-01 4.3343307e+01 
1.3810426e-01 5.4143524e-01 4.3628246e+01 
-3.2419339e-01 9.2096806e-01 4.3280907e+01 
-3.9903235e-01 8.5775709e-01 4.3279266e+01 
-9.2257597e-02 7.6921552e-01 4.3360443e+01 
1.1508528e-01 4.7804743e-01 4.3612068e+01 
-1.9276154e-01 8.4613472e-01 4.3295704e+01 
1.4013666e-02 6.6131532e-01 4.3426643e+01 
-1.7712323e-01 6.4207786e-01 4.3334946e+01 
-2.8066361e-01 7.2288430e-01 4.3267666e+01 
-4.3382257e-02 5.5983055e-01 4.3403778e+01 
-4.3632799e-01 9.6406323e-01 4.3218033e+01 
3.7877345e-01 3.8273901e-01 4.4200001e+01 
3.9076596e-01 3.7443376e-01 4.3993755e+01 
-3.2307580e-01 9.2128778e-01 4.3155251e+01 
-3.9906058e-01 8.5738426e-01 4.3153610e+01 
-8.7798268e-02 7.6781619e-01 4.3222996e+01 
1.9689407e-02 6.5803534e-01 4.3290459e+01 
-6.0862999e-02 5.6866169e-01 4.3278019e+01 
-1.8968078e-01 8.4602165e-01 4.3157055e+01 
-1.7394182e-01 6.3847917e-01 4.3193501e+01 
-4.3632734e-01 9.6405929e-01 4.3091995e+01 
4.0275589e-01 3.6612594e-01 4.3787510e+01 
1.2304078e-01 5.5709994e-01 4.3330139e+01 
-2.7917209e-01 7.2055119e-01 4.3125000e+01 
2.5336364e-01 4.4907436e-01 4.3468094e+01 
2.3670304e-01 4.1684708e-01 4.3469433e+01 
1.3086085e-01 4.6634668e-01 4.3336948e+01 
-3.8351217e-01 8.3473074e-01 4.3036392e+01 
-3.2194808e-01 9.2160189e-01 4.3028820e+01 
2.5518833e-02 6.5462554e-01 4.3151749e+01 
-8.3235659e-02 7.6635528e-01 4.3082981e+01 
4.1474071e-01 3.5781288e-01 4.3581264e+01 
-1.8654740e-01 8.4590012e-01 4.3015797e+01 
-3.2522827e-02 5.5011308e-01 4.3120937e+01 
-1.7067213e-01 6.3479382e-01 4.3049488e+01 
-4.3632668e-01 9.6405542e-01 4.2965172e+01 
-2.7765438e-01 7.1817529e-01 4.2979721e+01 
2.6620242e-01 4.4011977e-01 4.3261948e+01 
1.3584816e-02 6.7044950e-01 4.3025066e+01 
-3.2081014e-01 9.2191011e-01 4.2901604e+01 
-3.8160574e-01 8.3169121e-01 4.2902863e+01 
-7.8566879e-02 7.6482886e-01 4.2940315e+01 
-5.0480481e-02 5.5910730e-01 4.2990566e+01 
4.2671782e-01 3.4949207e-01 4.3375019e+01 
1.6821145e-01 5.2049083e-01 4.3083881e+01 
-1.8336046e-01 8.4576881e-01 4.2871841e+01 
-4.3632606e-01 9.6405160e-01 4.2837555e+01 
-1.6731077e-01 6.3101834e-01 4.2902817e+01 
1.4768846e-01 4.5400122e-01 4.3051926e+01 
-2.7610970e-01 7.1575516e-01 4.2831745e+01 
-3.1966189e-01 9.2221189e-01 4.2773579e+01 
-3.8560396e-01 8.3684862e-01 4.2767078e+01 
3.7660085e-02 6.4738947e-01 4.2866421e+01 
-7.3788933e-02 7.6323271e-01 4.2794899e+01 
4.3868470e-01 3.4116083e-01 4.3168777e+01 
-4.3632543e-01 9.6404779e-01 4.2709122e+01 
-2.0968946e-02 5.3986710e-01 4.2827656e+01 
-1.8011902e-01 8.4562629e-01 4.2725094e+01 
-1.6385415e-01 6.2714905e-01 4.2753403e+01 
-2.7453732e-01 7.1328926e-01 4.2680973e+01 
-3.1850323e-01 9.2250693e-01 4.2644733e+01 
-3.9907700e-01 8.5570478e-01 4.2643101e+01 
2.5504474e-02 6.6361672e-01 4.2734810e+01 
1.8471870e-01 5.0880390e-01 4.2796177e+01 
-6.8898737e-02 7.6156229e-01 4.2646645e+01 
-3.9438177e-02 5.4903054e-01 4.2692345e+01 
-4.3632481e-01 9.6404403e-01 4.2579861e+01 
4.5063871e-01 3.3281663e-01 4.2962532e+01 
1.6565691e-01 4.4095638e-01 4.2756321e+01 
-1.7682223e-01 8.4547096e-01 4.2575459e+01 
-1.6029853e-01 6.2318206e-01 4.2601143e+01 
-4.0415615e-01 8.6278629e-01 4.2516582e+01 
-3.1733403e-01 9.2279470e-01 4.2515053e+01 
-2.7293649e-01 7.1077597e-01 4.2527313e+01 
5.0482783e-02 6.3954860e-01 4.2569923e+01 
-4.3632418e-01 9.6404034e-01 4.2449757e+01 
-6.3893095e-02 7.5981271e-01 4.2495445e+01 
-8.6617703e-03 5.2904755e-01 4.2523201e+01 
-1.7346917e-01 8.4530097e-01 4.2422829e+01 
-1.5663996e-01 6.1911333e-01 4.2445942e+01 
3.0435190e-01 4.1341871e-01 4.2643494e+01 
4.6257737e-01 3.2445681e-01 4.2756287e+01 
-3.1615424e-01 9.2307472e-01 4.2384518e+01 
-3.9902648e-01 8.5475212e-01 4.2382885e+01 
-2.7130640e-01 7.0821363e-01 4.2370659e+01 
3.8079392e-02 6.5619886e-01 4.2433029e+01 
2.0230262e-01 4.9620378e-01 4.2497147e+01 
-4.3632355e-01 9.6403670e-01 4.2318787e+01 
-5.8768708e-02 7.5797862e-01 4.2341198e+01 
-2.7680276e-02 5.3838593e-01 4.2382599e+01 
1.8486446e-01 4.2715022e-01 4.2449394e+01 
-3.8436696e-01 8.3356136e-01 4.2264896e+01 
8.9545198e-02 5.3233254e-01 4.2382050e+01 
-3.3225983e-01 9.3122375e-01 4.2255634e+01 
-1.7005907e-01 8.4511453e-01 4.2267101e+01 
-1.5287429e-01 6.1493850e-01 4.2287693e+01 
4.7449806e-01 3.1607881e-01 4.2550037e+01 
-2.6964626e-01 7.0560038e-01 4.2210907e+01 
-4.3632296e-01 9.6403313e-01 4.2186939e+01 
6.4036883e-02 6.3103610e-01 4.2261456e+01 
-5.3522192e-02 7.5605446e-01 4.2183796e+01 
-3.7873057e-01 8.2541841e-01 4.2124020e+01 
-3.1376252e-01 9.2360973e-01 4.2120819e+01 
4.4639236e-03 5.1760370e-01 4.2206776e+01 
-1.6659111e-01 8.4490943e-01 4.2108162e+01 
-1.4899719e-01 6.1065292e-01 4.2126286e+01 
-4.3632239e-01 9.6402961e-01 4.2054195e+01 
4.8639825e-01 3.0768004e-01 4.2343792e+01 
-2.6795524e-01 7.0293444e-01 4.2047943e+01 
2.4746621e-01 4.6040925e-01 4.2191032e+01 
7.1105182e-02 6.2650448e-01 4.2102463e+01 
-3.1255043e-01 9.2386365e-01 4.1987617e+01 
-4.8150036e-02 7.5403398e-01 4.2023121e+01 
-1.5144684e-02 5.2712250e-01 4.2060505e+01 
-3.7995064e-01 8.2661813e-01 4.1980038e+01 
2.0541981e-01 4.1251117e-01 4.2130333e+01 
-1.6306458e-01 8.4468329e-01 4.1945896e+01 
-4.3632182e-01 9.6402621e-01 4.1920536e+01 
-1.4500406e-01 6.0625184e-01 4.1961609e+01 
1.3375351e-01 5.6370503e-01 4.1969833e+01 
-2.6623246e-01 7.0021385e-01 4.1881653e+01 
-3.1132740e-01 9.2410773e-01 4.1853493e+01 
-3.9880505e-01 8.5261923e-01 4.1851868e+01 
4.9827534e-01 2.9925787e-01 4.2137547e+01 
3.4194937e-01 3.8685825e-01 4.2025021e+01 
-4.2648647e-02 7.5191063e-01 4.1859051e+01 
-2.5401810e-01 7.9503769e-01 4.1808533e+01 
1.8480448e-02 5.0547802e-01 4.1877510e+01 
-4.3632126e-01 9.6402287e-01 4.1785946e+01 
-1.5947884e-01 8.4443361e-01 4.1780174e+01 
-1.4089009e-01 6.0172999e-01 4.1793541e+01 
-3.1009343e-01 9.2434150e-01 4.1718426e+01 
-4.0306881e-01 8.5845691e-01 4.1716179e+01 
8.5861288e-02 6.1683756e-01 4.1774368e+01 
-2.6447710e-01 6.9743657e-01 4.1711910e+01 
3.0427080e-01 4.1638452e-01 4.1839512e+01 
2.6751360e-01 3.7833902e-01 4.1830902e+01 
5.1012677e-01 2.9080975e-01 4.1931297e+01 
-3.7014309e-02 7.4967718e-01 4.1691463e+01 
-4.3632072e-01 9.6401966e-01 4.1650398e+01 
2.5847588e-02 4.9913955e-01 4.1707767e+01 
-1.5583332e-01 8.4415752e-01 4.1610870e+01 
-3.8322043e-01 8.2981020e-01 4.1595791e+01 
-3.0884841e-01 9.2456430e-01 4.1582397e+01 
-1.3665022e-01 5.9708190e-01 4.1621960e+01 
9.3565010e-02 6.1167872e-01 4.1605015e+01 
-2.6268822e-01 6.9460052e-01 4.1538593e+01 
-4.3632022e-01 9.6401656e-01 4.1513885e+01 
-3.1243213e-02 7.4732590e-01 4.1520226e+01 
2.7603787e-01 3.7115356e-01 4.1624012e+01 
2.8505871e-01 4.3281260e-01 4.1611507e+01 
5.2195001e-01 2.8233302e-01 4.1725052e+01 
3.3468332e-02 4.9260557e-01 4.1534447e+01 
-3.9853087e-01 8.5081697e-01 4.1443768e+01 
-3.2560509e-01 9.3245691e-01 4.1443577e+01 
-1.5212752e-01 8.4385180e-01 4.1437847e+01 
-1.3227913e-01 5.9230179e-01 4.1446728e+01 
-4.3631971e-01 9.6401358e-01 4.1376381e+01 
[...]
POINT_DATA 6166
FIELD FieldData 5
DISPLACEMENT 3 6166  float
-4.4299489e-01 -4.0597555e-01 -6.9833919e-03 
-4.4027162e-01 -4.0323207e-01 -6.9213472e-03 
-4.4295835e-01 -4.0587363e-01 -5.5497591e-03 
-4.4284943e-01 -4.0590444e-01 -8.6396905e-03 
-4.3887651e-01 -4.0176460e-01 -5.5247988e-03 
-4.3887183e-01 -4.0189821e-01 -8.5686725e-03 
-4.3753320e-01 -4.0047333e-01 -6.8589766e-03 
-4.4290128e-01 -4.0577281e-01 -4.5939148e-03 
-4.4274151e-01 -4.0580425e-01 -8.8245962e-03 
-4.4012681e-01 -4.0297499e-01 -4.4704205e-03 
-4.3987367e-01 -4.0291589e-01 -8.7763239e-03 
-4.3613118e-01 -3.9899746e-01 -5.4303221e-03 
-4.3582556e-01 -3.9882869e-01 -8.4865307e-03 
-4.3730533e-01 -4.0012977e-01 -4.3448787e-03 
-4.3477941e-01 -3.9769909e-01 -6.7962720e-03 
-4.4283387e-01 -4.0568003e-01 -4.0453272e-03 
-4.3695870e-01 -3.9998004e-01 -8.7272404e-03 
-4.4266841e-01 -4.0570983e-01 -8.3653219e-03 
-4.3858001e-01 -4.0139055e-01 -3.8605332e-03 
-4.3828395e-01 -4.0129420e-01 -8.2954969e-03 
-4.3337032e-01 -3.9621472e-01 -5.3353994e-03 
-4.3302363e-01 -3.9600560e-01 -8.4157698e-03 
-4.3443534e-01 -3.9723569e-01 -4.2172633e-03 
-4.3399513e-01 -3.9699525e-01 -8.6772982e-03 
-4.3200991e-01 -3.9490905e-01 -6.7332205e-03 
-4.3573201e-01 -3.9851853e-01 -3.7313753e-03 
-4.4273937e-01 -4.0558204e-01 -3.9826753e-03 
-4.3534288e-01 -3.9833173e-01 -8.2384674e-03 
-4.4260532e-01 -4.0560260e-01 -7.4021788e-03 
-4.3059367e-01 -3.9341605e-01 -5.2400436e-03 
-4.3045947e-01 -3.9341757e-01 -8.2512507e-03 
-4.3151531e-01 -3.9429122e-01 -4.0875585e-03 
-4.3702149e-01 -3.9981732e-01 -3.7559525e-03 
-4.3283471e-01 -3.9559680e-01 -3.6001345e-03 
-4.3098146e-01 -3.9396003e-01 -8.6264443e-03 
-4.3672574e-01 -3.9967600e-01 -7.1940240e-03 
-4.3943563e-01 -4.0225321e-01 -3.8949263e-03 
-4.3235239e-01 -3.9531952e-01 -8.1802038e-03 
-4.2922452e-01 -3.9210302e-01 -6.6697975e-03 
-4.3929625e-01 -4.0224060e-01 -6.7028417e-03 
-4.3446341e-01 -3.9723673e-01 -3.6200914e-03 
-4.3407559e-01 -3.9701447e-01 -7.3157689e-03 
-4.4263357e-01 -4.0547106e-01 -3.8833129e-03 
-4.4254550e-01 -4.0548140e-01 -6.0588778e-03 
-4.2780098e-01 -3.9060134e-01 -5.1442003e-03 
-4.2766565e-01 -3.9060348e-01 -8.1958892e-03 
-4.2854372e-01 -3.9129481e-01 -3.9557465e-03 
-4.2988655e-01 -3.9262384e-01 -3.4668022e-03 
-4.2791611e-01 -3.9087275e-01 -8.5746963e-03 
-4.2931095e-01 -3.9225602e-01 -8.1207408e-03 
-4.2642289e-01 -3.8928086e-01 -6.6061071e-03 
-4.3122295e-01 -3.9397115e-01 -3.5202210e-03 
-4.3074369e-01 -3.9364886e-01 -7.0394832e-03 
-4.3550465e-01 -3.9828053e-01 -3.5308371e-03 
-4.3928218e-01 -4.0207961e-01 -3.4742556e-03 
-4.3919313e-01 -4.0205750e-01 -4.9576685e-03 
-4.3523106e-01 -3.9809373e-01 -5.4770797e-03 
-4.2489168e-01 -3.8780630e-01 -8.0724154e-03 
-4.2499194e-01 -3.8777021e-01 -5.0480501e-03 
-4.2688590e-01 -3.8959807e-01 -3.3313863e-03 
-4.2857412e-01 -3.9129898e-01 -3.3780665e-03 
-4.2551887e-01 -3.8824481e-01 -3.8218112e-03 
-4.4253096e-01 -4.0534341e-01 -3.3466010e-03 
-4.4248810e-01 -4.0534621e-01 -4.3560686e-03 
-4.2621702e-01 -3.8913968e-01 -8.0598807e-03 
-4.2800227e-01 -3.9089572e-01 -7.1650189e-03 
-4.2479756e-01 -3.8773203e-01 -8.5218539e-03 
-4.2360500e-01 -3.8644218e-01 -6.5419646e-03 
-4.2965746e-01 -3.9238566e-01 -3.3004491e-03 
-4.2216653e-01 -3.8492277e-01 -4.9512954e-03 
-4.2202911e-01 -3.8492623e-01 -8.0846166e-03 
-4.2383119e-01 -3.8651788e-01 -3.1938925e-03 
-4.2920375e-01 -3.9201805e-01 -5.2572219e-03 
-4.2243922e-01 -3.8513973e-01 -3.6857987e-03 
-4.2521766e-01 -3.8791680e-01 -3.2776147e-03 
-4.2306897e-01 -3.8596889e-01 -7.9976264e-03 
-4.2162403e-01 -3.8453597e-01 -8.4681632e-03 
-4.2455482e-01 -3.8741341e-01 -6.8767909e-03 
-4.2077041e-01 -3.8358694e-01 -6.4775622e-03 
-4.4245562e-01 -4.0519530e-01 -1.7574987e-03 
-4.3777990e-01 -4.0048105e-01 -1.5685011e-03 
-4.1932425e-01 -3.8205826e-01 -4.8541822e-03 
-4.1918591e-01 -3.8206252e-01 -8.0286842e-03 
-4.2072064e-01 -3.8338169e-01 -3.0543231e-03 
-4.2213345e-01 -3.8480762e-01 -3.1538231e-03 
-4.2171648e-01 -3.8456306e-01 -7.0063299e-03 
-4.1930285e-01 -3.8197774e-01 -3.5477225e-03 
-4.1986522e-01 -3.8274214e-01 -7.9339435e-03 
-4.1791883e-01 -3.8071468e-01 -6.4127832e-03 
-4.3310425e-01 -3.9576697e-01 -1.3796935e-03 
-4.2292771e-01 -3.8560578e-01 -3.1316031e-03 
-4.1839397e-01 -3.8128322e-01 -8.4133213e-03 
-4.2594379e-01 -3.8862172e-01 -2.7103554e-03 
-4.2592832e-01 -3.8865665e-01 -3.8222659e-03 
-4.2296696e-01 -3.8573128e-01 -5.0242031e-03 
-4.1650924e-01 -3.7937394e-01 -8.1313597e-03 
-4.1646495e-01 -3.7917700e-01 -4.7568800e-03 
-4.1899255e-01 -3.8164163e-01 -3.0282631e-03 
-4.1755259e-01 -3.8018772e-01 -2.9126189e-03 
-4.2842898e-01 -3.9105356e-01 -1.1912775e-03 
-4.1610828e-01 -3.7875721e-01 -3.4072271e-03 
-4.1814628e-01 -3.8095713e-01 -6.7051798e-03 
-4.1660377e-01 -3.7945759e-01 -7.8689717e-03 
-4.1505027e-01 -3.7782547e-01 -6.3477284e-03 
-4.1510552e-01 -3.7797183e-01 -8.3573963e-03 
-4.2127135e-01 -3.8391128e-01 -2.5177537e-03 
-4.1614455e-01 -3.7876904e-01 -2.8734067e-03 
-4.1358835e-01 -3.7627864e-01 -4.6590124e-03 
-4.1348588e-01 -3.7633008e-01 -8.0882739e-03 
-4.1432515e-01 -3.7693414e-01 -2.7688781e-03 
-4.1520485e-01 -3.7800363e-01 -6.8392684e-03 
-4.2375493e-01 -3.8634151e-01 -1.0037743e-03 
-4.1732141e-01 -3.7995043e-01 -2.8154335e-03 
-4.1285339e-01 -3.7547615e-01 -3.2647320e-03 
-4.1216400e-01 -3.7491885e-01 -6.2824045e-03 
-4.1328314e-01 -3.7611356e-01 -7.8021670e-03 
-4.1650805e-01 -3.7922111e-01 -4.7764704e-03 
-4.1175678e-01 -3.7460020e-01 -8.3002681e-03 
-4.1069412e-01 -3.7336272e-01 -4.5609269e-03 
-4.1042143e-01 -3.7324250e-01 -7.9908958e-03 
-4.1253355e-01 -3.7513179e-01 -2.7720688e-03 
-4.1103646e-01 -3.7361914e-01 -2.6230679e-03 
-4.1908091e-01 -3.8162982e-01 -8.1656035e-04 
-4.0926021e-01 -3.7199488e-01 -6.2165684e-03 
-4.1150403e-01 -3.7426627e-01 -6.5243035e-03 
-4.0953636e-01 -3.7213302e-01 -3.1201986e-03 
-4.0990102e-01 -3.7270820e-01 -7.7340603e-03 
-4.0834621e-01 -3.7116656e-01 -8.2417186e-03 
-4.0778238e-01 -3.7042940e-01 -4.4626463e-03 
-4.0764010e-01 -3.7043613e-01 -7.8026238e-03 
-4.0957621e-01 -3.7214938e-01 -2.6110620e-03 
-4.1080511e-01 -3.7338316e-01 -2.5600269e-03 
-4.0768465e-01 -3.7024102e-01 -2.4754889e-03 
-4.0845293e-01 -3.7120324e-01 -6.6633010e-03 
-4.0633911e-01 -3.6905351e-01 -6.1501563e-03 
-4.1440904e-01 -3.7692118e-01 -6.3025713e-04 
-4.0981248e-01 -3.7247303e-01 -4.5134537e-03 
-4.0615553e-01 -3.6872607e-01 -2.9736527e-03 
-4.0645638e-01 -3.6923993e-01 -7.6637603e-03 
-4.0478903e-01 -3.6756366e-01 -7.6907799e-03 
-4.0485305e-01 -3.6747912e-01 -4.3636188e-03 
-4.0487191e-01 -3.6766899e-01 -8.1822947e-03 
-4.0582609e-01 -3.6837295e-01 -2.5096682e-03 
-4.0339985e-01 -3.6609450e-01 -6.0837273e-03 
-4.0426823e-01 -3.6679840e-01 -2.3259828e-03 
-4.0461424e-01 -3.6732754e-01 -6.3329050e-03 
-4.0270859e-01 -3.6525303e-01 -2.8249915e-03 
-4.0294731e-01 -3.6570722e-01 -7.5925253e-03 
-4.0726385e-01 -3.6979347e-01 -1.9448826e-03 
-4.0973949e-01 -3.7221587e-01 -4.4497967e-04 
-4.0190548e-01 -3.6451000e-01 -4.2642811e-03 
-4.0176123e-01 -3.6451799e-01 -7.6876488e-03 
-4.0133169e-01 -3.6410579e-01 -8.1216972e-03 
-4.0275282e-01 -3.6527485e-01 -2.3420774e-03 
-4.0403756e-01 -3.6656466e-01 -2.2961097e-03 
-4.0044260e-01 -3.6311734e-01 -6.0165972e-03 
-4.0078413e-01 -3.6328810e-01 -2.1741020e-03 
-4.0144676e-01 -3.6414850e-01 -6.4773802e-03 
-4.0286648e-01 -3.6547464e-01 -4.2340038e-03 
-3.9907479e-01 -3.6182025e-01 -7.7755852e-03 
-4.0145642e-01 -3.6404455e-01 -3.9655250e-03 
-3.9900243e-01 -3.6159593e-01 -4.3782750e-03 
-3.9919361e-01 -3.6171183e-01 -2.6742138e-03 
-3.9937040e-01 -3.6210716e-01 -7.5187511e-03 
-4.0507194e-01 -3.6751252e-01 -2.6116427e-04 
-3.9772350e-01 -3.6047494e-01 -8.0592316e-03 
-3.9746737e-01 -3.6012289e-01 -5.9492462e-03 
-3.9885378e-01 -3.6134973e-01 -2.2404098e-03 
-3.9723104e-01 -3.5970855e-01 -2.0205376e-03 
-3.9588752e-01 -3.5861534e-01 -7.7597587e-03 
-3.9595616e-01 -3.5851914e-01 -4.0656757e-03 
-3.9746001e-01 -3.6012441e-01 -6.1307135e-03 
-3.9560866e-01 -3.5810074e-01 -2.5209507e-03 
-3.9572427e-01 -3.5843813e-01 -7.4437903e-03 
-3.9447367e-01 -3.5711002e-01 -5.8818432e-03 
-4.0040711e-01 -3.6281365e-01 -7.8631645e-05 
-3.9404526e-01 -3.5677415e-01 -7.9956241e-03 
-3.9709359e-01 -3.5956621e-01 -1.9322974e-03 
-3.9526367e-01 -3.5773373e-01 -2.1032828e-03 
-3.9295346e-01 -3.5549682e-01 -3.9656740e-03 
-3.9360633e-01 -3.5605779e-01 -1.8654995e-03 
-3.9416847e-01 -3.5682216e-01 -6.2808054e-03 
-3.9264226e-01 -3.5534987e-01 -7.6852385e-03 
-3.9565265e-01 -3.5820779e-01 -3.9370428e-03 
-3.9195117e-01 -3.5441732e-01 -2.3662029e-03 
-3.9146048e-01 -3.5407865e-01 -5.8142799e-03 
-3.9200750e-01 -3.5469878e-01 -7.3660188e-03 
-3.9220950e-01 -3.5466164e-01 -2.0464098e-03 
-3.9029527e-01 -3.5300240e-01 -7.9301400e-03 
-3.8993192e-01 -3.5245588e-01 -3.8660613e-03 
-3.8978320e-01 -3.5246587e-01 -7.4545047e-03 
-3.9574736e-01 -3.5812140e-01 1.0218931e-04 
-3.9328113e-01 -3.5570893e-01 -1.3845186e-03 
-3.8990861e-01 -3.5233435e-01 -1.7089784e-03 
-3.8877159e-01 -3.5136139e-01 -5.4717716e-03 
-3.9002579e-01 -3.5264230e-01 -5.9164637e-03 
-3.8842931e-01 -3.5103011e-01 -5.7463925e-03 
-3.8821983e-01 -3.5066122e-01 -2.2110543e-03 
-3.8821852e-01 -3.5088742e-01 -7.2853733e-03 
-3.8689193e-01 -3.4939733e-01 -3.7661435e-03 
-3.8673577e-01 -3.4939978e-01 -7.3472857e-03 
-3.8786310e-01 -3.5028380e-01 -1.8271280e-03 
-3.8647166e-01 -3.4915796e-01 -7.8625847e-03 
-3.8912904e-01 -3.5153982e-01 -1.4712461e-03 
-3.8887724e-01 -3.5136288e-01 -3.1558394e-03 
-3.9108962e-01 -3.5343081e-01 2.8083962e-04 
-3.8613626e-01 -3.4853694e-01 -1.5513664e-03 
-3.8537976e-01 -3.4796372e-01 -5.6771133e-03 
-3.8619971e-01 -3.4879342e-01 -5.8035520e-03 
-3.8441283e-01 -3.4682965e-01 -2.0538021e-03 
-3.8399765e-01 -3.4665555e-01 -7.4835219e-03 
-3.8383454e-01 -3.4632218e-01 -3.6670142e-03 
-3.8435403e-01 -3.4700248e-01 -7.2042127e-03 
-3.8405061e-01 -3.4644738e-01 -1.6860421e-03 
-3.8257337e-01 -3.4523934e-01 -7.7939997e-03 
-3.8231352e-01 -3.4488031e-01 -5.6079356e-03 
-3.8228577e-01 -3.4466293e-01 -1.3923586e-03 
-3.8421646e-01 -3.4667471e-01 -3.0203420e-03 
-3.8401607e-01 -3.4640089e-01 -1.4189990e-03 
-3.8643879e-01 -3.4874988e-01 4.5701821e-04 
-3.8229755e-01 -3.4486946e-01 -5.6882538e-03 
-3.8060758e-01 -3.4324074e-01 -7.2750943e-03 
-3.8072363e-01 -3.4320292e-01 -3.7970496e-03 
-3.8052675e-01 -3.4292096e-01 -1.8941009e-03 
-3.8041359e-01 -3.4304214e-01 -7.1196859e-03 
-3.7922704e-01 -3.4177822e-01 -5.5393255e-03 
-3.8069525e-01 -3.4307516e-01 -1.6152638e-03 
-3.7859687e-01 -3.4124380e-01 -7.7230465e-03 
-3.7835625e-01 -3.4071067e-01 -1.2319044e-03 
-3.7766373e-01 -3.4011737e-01 -3.4665605e-03 
-3.7751004e-01 -3.4012949e-01 -7.2150161e-03 
-3.7831786e-01 -3.4086907e-01 -5.5691847e-03 
-3.7978289e-01 -3.4221059e-01 -2.7424819e-03 
-3.8179535e-01 -3.4407839e-01 6.3141261e-04 
-3.7656090e-01 -3.3893272e-01 -1.7332218e-03 
-3.7913200e-01 -3.4148374e-01 -1.1155690e-03 
-3.7612122e-01 -3.3865875e-01 -5.4716566e-03 
-3.7639412e-01 -3.3900404e-01 -7.0329858e-03 
-3.7658334e-01 -3.3894202e-01 -1.4769307e-03 
-3.7454873e-01 -3.3698782e-01 -3.3670072e-03 
-3.7439412e-01 -3.3700159e-01 -7.1549118e-03 
-3.7454042e-01 -3.3717003e-01 -7.6509467e-03 
-3.7434456e-01 -3.3667758e-01 -1.0699342e-03 
-3.7425807e-01 -3.3679014e-01 -5.4467036e-03 
-3.7299654e-01 -3.3552185e-01 -5.4024165e-03 
-3.7534368e-01 -3.3775651e-01 -2.7533600e-03 
-3.7715995e-01 -3.3941713e-01 8.0273103e-04 
-3.7251127e-01 -3.3486259e-01 -1.5707682e-03 
-3.7229288e-01 -3.3488604e-01 -6.9440976e-03 
-3.7462863e-01 -3.3695573e-01 -9.1276050e-04 
-3.7141505e-01 -3.3383998e-01 -3.2677106e-03 
-3.7126005e-01 -3.3385518e-01 -7.0943744e-03 
-3.7231410e-01 -3.3465239e-01 -1.3252862e-03 
-3.7040082e-01 -3.3301553e-01 -7.5770873e-03 
-3.6985335e-01 -3.3236599e-01 -5.3320723e-03 
-3.7024751e-01 -3.3256137e-01 -9.0676890e-04 
-3.7011510e-01 -3.3262968e-01 -5.3206789e-03 
-3.6826321e-01 -3.3067533e-01 -3.1681687e-03 
-3.6810654e-01 -3.3068970e-01 -7.0344922e-03 
-3.6837506e-01 -3.3070850e-01 -1.4062156e-03 
-3.7253317e-01 -3.3476698e-01 9.7084447e-04 
-3.6810723e-01 -3.3068585e-01 -6.8527949e-03 
-3.7010419e-01 -3.3250085e-01 -2.7392253e-03 
-3.7016159e-01 -3.3246565e-01 -7.0546090e-04 
-3.6669016e-01 -3.2919210e-01 -5.2633910e-03 
-3.6797726e-01 -3.3029714e-01 -1.1734650e-03 
-3.6617571e-01 -3.2877776e-01 -7.5005349e-03 
-3.6606333e-01 -3.2835990e-01 -7.4342941e-04 
-3.6651900e-01 -3.2900679e-01 -4.9154749e-03 
-3.6508963e-01 -3.2749096e-01 -3.0684993e-03 
-3.6493376e-01 -3.2750869e-01 -6.9715870e-03 
-3.6415055e-01 -3.2646802e-01 -1.2416621e-03 
-3.6791509e-01 -3.3012742e-01 1.1397300e-03 
-3.6350822e-01 -3.2600209e-01 -5.1911334e-03 
-3.6383599e-01 -3.2640195e-01 -6.7591234e-03 
-3.6563531e-01 -3.2792151e-01 -5.5513595e-04 
-3.6507815e-01 -3.2743946e-01 -2.2274025e-03 
-3.6363593e-01 -3.2593957e-01 -1.0217451e-03 
-3.6189899e-01 -3.2429111e-01 -2.9673232e-03 
-3.6174047e-01 -3.2430851e-01 -6.9091935e-03 
-3.6186445e-01 -3.2445547e-01 -7.4239210e-03 
-3.6178970e-01 -3.2407144e-01 -5.7956745e-04 
-3.6220336e-01 -3.2466835e-01 -4.5847627e-03 
-3.6030579e-01 -3.2279193e-01 -5.1198616e-03 
-3.5983729e-01 -3.2214016e-01 -1.0762783e-03 
-3.5960272e-01 -3.2206938e-01 -4.7127106e-03 
-3.6330706e-01 -3.2550254e-01 1.3042479e-03 
-3.5947630e-01 -3.2203200e-01 -6.6629481e-03 
-3.6116496e-01 -3.2343858e-01 -4.7419535e-04 
-3.5868776e-01 -3.2107174e-01 -2.8698612e-03 
-3.5852751e-01 -3.2108802e-01 -6.8476903e-03 
-3.5925910e-01 -3.2154912e-01 -8.6418464e-04 
-3.6050177e-01 -3.2284090e-01 -1.9227951e-03 
-3.5746279e-01 -3.2004553e-01 -7.3435595e-03 
-3.5708433e-01 -3.1956366e-01 -5.0507714e-03 
-3.5742342e-01 -3.1969273e-01 -4.1429233e-04 
-3.5773271e-01 -3.2018602e-01 -4.4202358e-03 
-3.5545594e-01 -3.1783277e-01 -2.7695773e-03 
-3.5529736e-01 -3.1785256e-01 -6.7848740e-03 
-3.5542613e-01 -3.1771949e-01 -9.1060094e-04 
-3.5870641e-01 -3.2088685e-01 1.4667590e-03 
-3.5502490e-01 -3.1757322e-01 -6.5636542e-03 
-3.5666719e-01 -3.1892863e-01 -3.2945504e-04 
-3.5384282e-01 -3.1631783e-01 -4.9786395e-03 
-3.5481828e-01 -3.1709850e-01 -7.1001705e-04 
-3.5601604e-01 -3.1833464e-01 -1.5673729e-03 
-3.5303807e-01 -3.1544828e-01 -3.4986297e-03 
-3.5296771e-01 -3.1554601e-01 -7.2636297e-03 
-3.5296082e-01 -3.1522122e-01 -2.4936273e-04 
-3.5220516e-01 -3.1457898e-01 -2.6694585e-03 
-3.5311657e-01 -3.1555703e-01 -4.1612023e-03 
-3.5162461e-01 -3.1418422e-01 -6.8762223e-03 
-3.5092032e-01 -3.1320623e-01 -7.4283552e-04 
-3.5057980e-01 -3.1305349e-01 -4.9076546e-03 
-3.5412008e-01 -3.1629068e-01 1.6243983e-03 
-3.5048458e-01 -3.1301883e-01 -6.2247869e-03 
-3.5202336e-01 -3.1428063e-01 -2.3120915e-04 
-3.5047525e-01 -3.1274706e-01 -5.3413678e-04 
-3.5167816e-01 -3.1397119e-01 -1.0024376e-03 
-3.4894377e-01 -3.1131583e-01 -2.5846791e-03 
-3.4878334e-01 -3.1133530e-01 -6.6546956e-03 
-3.4837765e-01 -3.1095392e-01 -7.1804137e-03 
-3.4842217e-01 -3.1067815e-01 -8.6280175e-05 
-3.4732056e-01 -3.0979297e-01 -4.8359064e-03 
-3.4761482e-01 -3.1004813e-01 -3.9408701e-03 
-3.4635189e-01 -3.0863526e-01 -5.7559594e-04 
-3.4955028e-01 -3.1171575e-01 1.7764928e-03 
-3.4569600e-01 -3.0806655e-01 -2.5103129e-03 
-3.4553778e-01 -3.0808818e-01 -6.5817721e-03 
-3.4590217e-01 -3.0844739e-01 -6.3961544e-03 
-3.4711489e-01 -3.0940384e-01 -8.4626762e-04 
-3.4645620e-01 -3.0870840e-01 -2.4764920e-05 
-3.4512213e-01 -3.0739293e-01 -3.6099681e-04 
-3.4408370e-01 -3.0655530e-01 -4.7635157e-03 
-3.4380883e-01 -3.0638579e-01 -7.1001900e-03 
-3.4389597e-01 -3.0614993e-01 7.9370519e-05 
-3.4337020e-01 -3.0584094e-01 -4.6415478e-03 
-3.4247246e-01 -3.0484420e-01 -2.4391490e-03 
-3.4210339e-01 -3.0466205e-01 -6.6896109e-03 
-3.4185913e-01 -3.0414066e-01 -4.1363863e-04 
-3.4499130e-01 -3.0715543e-01 1.9266391e-03 
-3.4136817e-01 -3.0391812e-01 -6.3377749e-03 
-3.4086910e-01 -3.0334300e-01 -4.6941326e-03 
-3.4130993e-01 -3.0357859e-01 -2.0536613e-04 
-3.4218934e-01 -3.0453229e-01 -1.8386962e-03 
-3.4259847e-01 -3.0483431e-01 4.9116561e-04 
-3.4086198e-01 -3.0313110e-01 -2.0022353e-04 
-3.3930871e-01 -3.0188999e-01 -7.0176329e-03 
-3.3926877e-01 -3.0164385e-01 -2.3700278e-03 
-3.3911273e-01 -3.0166656e-01 -6.4369249e-03 
-3.3944455e-01 -3.0169708e-01 2.3729773e-04 
-3.3887431e-01 -3.0135310e-01 -4.6298197e-03 
-3.3767828e-01 -3.0015662e-01 -4.6240403e-03 
-3.3744079e-01 -2.9972342e-01 -2.6034564e-04 
-3.4044617e-01 -3.0261207e-01 2.0792645e-03 
-3.3690491e-01 -2.9946223e-01 -6.2783016e-03 
-3.3625656e-01 -2.9882583e-01 -6.6116825e-03 
-3.3609229e-01 -2.9847237e-01 -2.3040730e-03 
-3.3690172e-01 -2.9917070e-01 -4.5503995e-05 
-3.3805981e-01 -3.0029705e-01 6.4287492e-04 
-3.3802006e-01 -3.0031085e-01 -5.4025208e-04 
-3.3487871e-01 -2.9746696e-01 -6.9363527e-03 
-3.3634230e-01 -2.9872736e-01 -2.5263780e-03 
-3.3506611e-01 -2.9732281e-01 3.8869557e-04 
-3.3451325e-01 -2.9699552e-01 -4.5563653e-03 
-3.3569592e-01 -2.9796723e-01 -3.5364559e-05 
-3.3444965e-01 -2.9693955e-01 -4.6161069e-03 
-3.3293745e-01 -2.9532185e-01 -2.2375481e-03 
-3.3309427e-01 -2.9538342e-01 -1.1045520e-04 
-3.3590683e-01 -2.9807454e-01 2.2217808e-03 
-3.3251113e-01 -2.9507920e-01 -6.2185340e-03 
-3.3215779e-01 -2.9473665e-01 -6.5706945e-03 
-3.3256674e-01 -2.9484212e-01 1.0917739e-04 
-3.3136684e-01 -2.9385796e-01 -4.4875434e-03 
-3.3352998e-01 -2.9576862e-01 7.9209876e-04 
-3.3348897e-01 -2.9578149e-01 -3.8971036e-04 
-3.3051643e-01 -2.9311714e-01 -6.8563754e-03 
-3.3076006e-01 -2.9302543e-01 5.3414458e-04 
-3.2980356e-01 -2.9219842e-01 -2.1751265e-03 
-3.2965079e-01 -2.9222268e-01 -6.2238476e-03 
-3.3108431e-01 -2.9349515e-01 -2.7052045e-03 
-3.3118021e-01 -2.9345945e-01 1.0122746e-04 
-3.3009410e-01 -2.9259953e-01 -4.6000066e-03 
-3.2893240e-01 -2.9143080e-01 -4.4382066e-03 
-3.2882151e-01 -2.9112133e-01 3.2074753e-05 
-3.2824609e-01 -2.9074594e-01 -4.4192746e-03 
-3.3138359e-01 -2.9355621e-01 2.3618988e-03 
-3.2793015e-01 -2.9053453e-01 -6.7372615e-03 
-3.2818690e-01 -2.9076889e-01 -6.1575882e-03 
-3.2830495e-01 -2.9059014e-01 2.5830706e-04 
-3.2901922e-01 -2.9126844e-01 9.3574909e-04 
-3.2897672e-01 -2.9128066e-01 -2.4296549e-04 
-3.2669592e-01 -2.8910339e-01 -2.1144180e-03 
-3.2654047e-01 -2.8912410e-01 -6.1522895e-03 
-3.2643366e-01 -2.8889337e-01 -3.3196777e-03 
-3.2622102e-01 -2.8883752e-01 -6.7741829e-03 
-3.2641262e-01 -2.8884748e-01 -2.7492149e-03 
-3.2652906e-01 -2.8880557e-01 6.7100173e-04 
-3.2658514e-01 -2.8901133e-01 -2.5512560e-03 
-3.2668325e-01 -2.8897679e-01 2.3371284e-04 
-3.2580981e-01 -2.8833374e-01 -4.5788838e-03 
-3.2514980e-01 -2.8766263e-01 -4.3553263e-03 
-3.2483456e-01 -2.8745177e-01 -6.6650556e-03 
-3.2461980e-01 -2.8693429e-01 1.6369823e-04 
-3.2379073e-01 -2.8637961e-01 -5.9398920e-03 
-3.2392734e-01 -2.8652960e-01 -6.0980506e-03 
-3.2687932e-01 -2.8906530e-01 2.4971142e-03 
-3.2369140e-01 -2.8620961e-01 -4.3013706e-03 
-3.2361203e-01 -2.8603163e-01 -2.0562641e-03 
-3.2411790e-01 -2.8641841e-01 4.0507587e-04 
-3.2452729e-01 -2.8679413e-01 1.0754169e-03 
-3.2448360e-01 -2.8680557e-01 -1.0022454e-04 
-3.2207936e-01 -2.8460637e-01 -4.2880215e-03 
-3.2199597e-01 -2.8463340e-01 -6.6947071e-03 
-3.2236305e-01 -2.8465804e-01 8.0247532e-04 
-3.2159030e-01 -2.8413844e-01 -4.5654420e-03 
-3.2210505e-01 -2.8454778e-01 -2.3954478e-03 
-3.2220459e-01 -2.8451675e-01 3.6687075e-04 
-3.2055441e-01 -2.8298971e-01 -1.9971742e-03 
-3.2052118e-01 -2.8304932e-01 -4.0577436e-03 
-3.2040036e-01 -2.8301403e-01 -6.0101463e-03 
-3.2048753e-01 -2.8281957e-01 2.9492038e-04 
-3.1973583e-01 -2.8235936e-01 -6.0376441e-03 
-3.2239512e-01 -2.8459963e-01 2.6269217e-03 
-3.1999740e-01 -2.8231555e-01 5.4181903e-04 
-3.1903148e-01 -2.8157571e-01 -4.2251460e-03 
-3.1871930e-01 -2.8136778e-01 -6.5324740e-03 
-3.1809831e-01 -2.8056297e-01 -2.3309926e-03 
-3.1827199e-01 -2.8058580e-01 9.2825561e-04 
-3.1783402e-01 -2.8049436e-01 -6.6145724e-03 
-3.2005560e-01 -2.8234228e-01 1.2104821e-03 
-3.2001084e-01 -2.8235257e-01 3.7754176e-05 
-3.1761000e-01 -2.8015420e-01 -4.0050955e-03 
-3.1759295e-01 -2.8008354e-01 -2.7788603e-03 