# vtk DataFile Version 4.0
vtk output
ASCII
DATASET UNSTRUCTURED_GRID
POINTS 6166 float
-4.3633327e-01 9.6409470e-01 4.4200001e+01 
-4.3633261e-01 9.6409082e-01 4.4079685e+01 
-3.2145375e-01 9.1276109e-01 4.4200001e+01 
-3.8566181e-01 8.4097892e-01 4.4200001e+01 
-3.3069235e-01 9.1895354e-01 4.4019413e+01 
-3.8473952e-01 8.3919770e-01 4.4024357e+01 
-4.3633196e-01 9.6408689e-01 4.3958702e+01 
-2.1293370e-01 8.4677851e-01 4.4200001e+01 
-2.9042658e-01 7.3813015e-01 4.4200001e+01 
-2.1019450e-01 8.4669626e-01 4.4077393e+01 
-2.8909999e-01 7.3605996e-01 4.4073399e+01 
-3.2963324e-01 9.1929907e-01 4.3898094e+01 
-3.8679782e-01 8.4179753e-01 4.3889645e+01 
-2.0740938e-01 8.4661204e-01 4.3952713e+01 
-4.3633130e-01 9.6408290e-01 4.3837040e+01 
-1.1677200e-01 7.7521002e-01 4.4200001e+01 
-2.8775173e-01 7.3395580e-01 4.3944717e+01 
-1.9365783e-01 6.6203654e-01 4.4200001e+01 
-1.1309985e-01 7.7540898e-01 4.4012005e+01 
-1.9181472e-01 6.5888047e-01 4.4006447e+01 
-3.2856464e-01 9.1964108e-01 4.3776085e+01 
-3.8823184e-01 8.4352189e-01 4.3765770e+01 
-2.0457739e-01 8.4652513e-01 4.3825886e+01 
-2.8638119e-01 7.3181647e-01 4.3813885e+01 
-4.3633065e-01 9.6407896e-01 4.3714680e+01 
-1.0911675e-01 7.7426714e-01 4.3886200e+01 
-2.1001574e-02 6.8269837e-01 4.4200001e+01 
-1.8902887e-01 6.5566909e-01 4.3876659e+01 
-7.8887597e-02 5.9015810e-01 4.4200001e+01 
-3.2748649e-01 9.1997939e-01 4.3653378e+01 
-3.9889076e-01 8.5876143e-01 4.3651733e+01 
-2.0169757e-01 8.4643483e-01 4.3696846e+01 
-7.2496021e-03 6.7325598e-01 4.3947758e+01 
-1.0504345e-01 7.7307969e-01 4.3758209e+01 
-2.8498772e-01 7.2964084e-01 4.3680840e+01 
-6.3224643e-02 5.7783771e-01 4.3940754e+01 
3.5808440e-02 6.2679136e-01 4.4056572e+01 
-1.8616955e-01 6.5238589e-01 4.3744686e+01 
-4.3632996e-01 9.6407503e-01 4.3591618e+01 
-9.8678423e-03 5.4892725e-01 4.4055367e+01 
-1.8652271e-02 6.8798620e-01 4.3834026e+01 
-7.9845116e-02 5.8636194e-01 4.3823372e+01 
8.7777540e-02 5.7885915e-01 4.4200001e+01 
5.3622175e-02 5.1732427e-01 4.4200001e+01 
-3.2639861e-01 9.2031354e-01 4.3529953e+01 
-3.9894739e-01 8.5844576e-01 4.3528313e+01 
-1.9876897e-01 8.4634024e-01 4.3565521e+01 
-1.0087753e-01 7.7184403e-01 4.3627972e+01 
-2.8357074e-01 7.2742778e-01 4.3545506e+01 
-1.8323407e-01 6.4902818e-01 4.3610458e+01 
-4.3632931e-01 9.6407109e-01 4.3467831e+01 
3.1033519e-03 6.6751039e-01 4.3691772e+01 
-5.3600248e-02 5.6906003e-01 4.3676846e+01 
1.2436585e-01 5.5082864e-01 4.3886215e+01 
1.7079005e-01 5.1095647e-01 4.4054855e+01 
1.4951277e-01 4.6697062e-01 4.4053665e+01 
1.0028158e-01 4.8915190e-01 4.3877911e+01 
-4.0513036e-01 8.6722642e-01 4.3405304e+01 
-3.2530096e-01 9.2064321e-01 4.3405800e+01 
-9.6616447e-02 7.7055699e-01 4.3495411e+01 
-8.4563000e-03 6.8258613e-01 4.3574005e+01 
-1.9579062e-01 8.4624058e-01 4.3431831e+01 
2.1753120e-01 4.7335833e-01 4.4200001e+01 
2.0360756e-01 4.4289169e-01 4.4200001e+01 
-1.8021962e-01 6.4559317e-01 4.3473904e+01 
-7.0636064e-02 5.7773441e-01 4.3555408e+01 
-2.8212959e-01 7.2517604e-01 4.3407806e+01 
-4.3632865e-01 9.6406716e-01 4.3343307e+01 
1.3810426e-01 5.4143524e-01 4.3628246e+01 
-3.2419339e-01 9.2096806e-01 4.3280907e+01 
-3.9903235e-01 8.5775709e-01 4.3279266e+01 
-9.2257597e-02 7.6921552e-01 4.3360443e+01 
1.1508528e-01 4.7804743e-01 4.3612068e+01 
-1.9276154e-01 8.4613472e-01 4.3295704e+01 
1.4013666e-02 6.6131532e-01 4.3426643e+01 
-1.7712323e-01 6.4207786e-01 4.3334946e+01 
-2.8066361e-01 7.2288430e-01 4.3267666e+01 
-4.3382257e-02 5.5983055e-01 4.3403778e+01 
-4.3632799e-01 9.6406323e-01 4.3218033e+01 
3.7877345e-01 3.8273901e-01 4.4200001e+01 
3.9076596e-01 3.7443376e-01 4.3993755e+01 
-3.2307580e-01 9.2128778e-01 4.3155251e+01 
-3.9906058e-01 8.5738426e-01 4.3153610e+01 
-8.7798268e-02 7.6781619e-01 4.3222996e+01 
1.9689407e-02 6.5803534e-01 4.3290459e+01 
-6.0862999e-02 5.6866169e-01 4.3278019e+01 
-1.8968078e-01 8.4602165e-01 4.3157055e+01 
-1.7394182e-01 6.3847917e-01 4.3193501e+01 
-4.3632734e-01 9.6405929e-01 4.3091995e+01 
4.0275589e-01 3.6612594e-01 4.3787510e+01 
1.2304078e-01 5.5709994e-01 4.3330139e+01 
-2.7917209e-01 7.2055119e-01 4.3125000e+01 
2.5336364e-01 4.4907436e-01 4.3468094e+01 
2.3670304e-01 4.1684708e-01 4.3469433e+01 
1.3086085e-01 4.6634668e-01 4.3336948e+01 
-3.8351217e-01 8.3473074e-01 4.3036392e+01 
-3.2194808e-01 9.2160189e-01 4.3028820e+01 
2.5518833e-02 6.5462554e-01 4.3151749e+01 
-8.3235659e-02 7.6635528e-01 4.3082981e+01 
4.1474071e-01 3.5781288e-01 4.3581264e+01 
-1.8654740e-01 8.4590012e-01 4.3015797e+01 
-3.2522827e-02 5.5011308e-01 4.3120937e+01 
-1.7067213e-01 6.3479382e-01 4.3049488e+01 
-4.3632668e-01 9.6405542e-01 4.2965172e+01 
-2.7765438e-01 7.1817529e-01 4.2979721e+01 
2.6620242e-01 4.4011977e-01 4.3261948e+01 
1.3584816e-02 6.7044950e-01 4.3025066e+01 
-3.2081014e-01 9.2191011e-01 4.2901604e+01 
-3.8160574e-01 8.3169121e-01 4.2902863e+01 
-7.8566879e-02 7.6482886e-01 4.2940315e+01 
-5.0480481e-02 5.5910730e-01 4.2990566e+01 
4.2671782e-01 3.4949207e-01 4.3375019e+01 
1.6821145e-01 5.2049083e-01 4.3083881e+01 
-1.8336046e-01 8.4576881e-01 4.2871841e+01 
-4.3632606e-01 9.6405160e-01 4.2837555e+01 
-1.6731077e-01 6.3101834e-01 4.2902817e+01 
1.4768846e-01 4.5400122e-01 4.3051926e+01 
-2.7610970e-01 7.1575516e-01 4.2831745e+01 
-3.1966189e-01 9.2221189e-01 4.2773579e+01 
-3.8560396e-01 8.3684862e-01 4.2767078e+01 
3.7660085e-02 6.4738947e-01 4.2866421e+01 
-7.3788933e-02 7.6323271e-01 4.2794899e+01 
4.3868470e-01 3.4116083e-01 4.3168777e+01 
-4.3632543e-01 9.6404779e-01 4.2709122e+01 
-2.0968946e-02 5.3986710e-01 4.2827656e+01 
-1.8011902e-01 8.4562629e-01 4.2725094e+01 
-1.6385415e-01 6.2714905e-01 4.2753403e+01 
-2.7453732e-01 7.1328926e-01 4.2680973e+01 
-3.1850323e-01 9.2250693e-01 4.2644733e+01 
-3.9907700e-01 8.5570478e-01 4.2643101e+01 
2.5504474e-02 6.6361672e-01 4.2734810e+01 
1.8471870e-01 5.0880390e-01 4.2796177e+01 
-6.8898737e-02 7.6156229e-01 4.2646645e+01 
-3.9438177e-02 5.4903054e-01 4.2692345e+01 
-4.3632481e-01 9.6404403e-01 4.2579861e+01 
4.5063871e-01 3.3281663e-01 4.2962532e+01 
1.6565691e-01 4.4095638e-01 4.2756321e+01 
-1.7682223e-01 8.4547096e-01 4.2575459e+01 
-1.6029853e-01 6.2318206e-01 4.2601143e+01 
-4.0415615e-01 8.6278629e-01 4.2516582e+01 
-3.1733403e-01 9.2279470e-01 4.2515053e+01 
-2.7293649e-01 7.1077597e-01 4.2527313e+01 
5.0482783e-02 6.3954860e-01 4.2569923e+01 
-4.3632418e-01 9.6404034e-01 4.2449757e+01 
-6.3893095e-02 7.5981271e-01 4.2495445e+01 
-8.6617703e-03 5.2904755e-01 4.2523201e+01 
-1.7346917e-01 8.4530097e-01 4.2422829e+01 
-1.5663996e-01 6.1911333e-01 4.2445942e+01 
3.0435190e-01 4.1341871e-01 4.2643494e+01 
4.6257737e-01 3.2445681e-01 4.2756287e+01 
-3.1615424e-01 9.2307472e-01 4.2384518e+01 
-3.9902648e-01 8.5475212e-01 4.2382885e+01 
-2.7130640e-01 7.0821363e-01 4.2370659e+01 
3.8079392e-02 6.5619886e-01 4.2433029e+01 
2.0230262e-01 4.9620378e-01 4.2497147e+01 
-4.3632355e-01 9.6403670e-01 4.2318787e+01 
-5.8768708e-02 7.5797862e-01 4.2341198e+01 
-2.7680276e-02 5.3838593e-01 4.2382599e+01 
1.8486446e-01 4.2715022e-01 4.2449394e+01 
-3.8436696e-01 8.3356136e-01 4.2264896e+01 
8.9545198e-02 5.3233254e-01 4.2382050e+01 
-3.3225983e-01 9.3122375e-01 4.2255634e+01 
-1.7005907e-01 8.4511453e-01 4.2267101e+01 
-1.5287429e-01 6.1493850e-01 4.2287693e+01 
4.7449806e-01 3.1607881e-01 4.2550037e+01 
-2.6964626e-01 7.0560038e-01 4.2210907e+01 
-4.3632296e-01 9.6403313e-01 4.2186939e+01 
6.4036883e-02 6.3103610e-01 4.2261456e+01 
-5.3522192e-02 7.5605446e-01 4.2183796e+01 
-3.7873057e-01 8.2541841e-01 4.2124020e+01 
-3.1376252e-01 9.2360973e-01 4.2120819e+01 
4.4639236e-03 5.1760370e-01 4.2206776e+01 
-1.6659111e-01 8.4490943e-01 4.2108162e+01 
-1.4899719e-01 6.1065292e-01 4.2126286e+01 
-4.3632239e-01 9.6402961e-01 4.2054195e+01 
4.8639825e-01 3.0768004e-01 4.2343792e+01 
-2.6795524e-01 7.0293444e-01 4.2047943e+01 
2.4746621e-01 4.6040925e-01 4.2191032e+01 
7.1105182e-02 6.2650448e-01 4.2102463e+01 
-3.1255043e-01 9.2386365e-01 4.1987617e+01 
-4.8150036e-02 7.5403398e-01 4.2023121e+01 
-1.5144684e-02 5.2712250e-01 4.2060505e+01 
-3.7995064e-01 8.2661813e-01 4.1980038e+01 
2.0541981e-01 4.1251117e-01 4.2130333e+01 
-1.6306458e-01 8.4468329e-01 4.1945896e+01 
-4.3632182e-01 9.6402621e-01 4.1920536e+01 
-1.4500406e-01 6.0625184e-01 4.1961609e+01 
1.3375351e-01 5.6370503e-01 4.1969833e+01 
-2.6623246e-01 7.0021385e-01 4.1881653e+01 
-3.1132740e-01 9.2410773e-01 4.1853493e+01 
-3.9880505e-01 8.5261923e-01 4.1851868e+01 
4.9827534e-01 2.9925787e-01 4.2137547e+01 
3.4194937e-01 3.8685825e-01 4.2025021e+01 
-4.2648647e-02 7.5191063e-01 4.1859051e+01 
-2.5401810e-01 7.9503769e-01 4.1808533e+01 
1.8480448e-02 5.0547802e-01 4.1877510e+01 
-4.3632126e-01 9.6402287e-01 4.1785946e+01 
-1.5947884e-01 8.4443361e-01 4.1780174e+01 
-1.4089009e-01 6.0172999e-01 4.1793541e+01 
-3.1009343e-01 9.2434150e-01 4.1718426e+01 
-4.0306881e-01 8.5845691e-01 4.1716179e+01 
8.5861288e-02 6.1683756e-01 4.1774368e+01 
-2.6447710e-01 6.9743657e-01 4.1711910e+01 
3.0427080e-01 4.1638452e-01 4.1839512e+01 
2.6751360e-01 3.7833902e-01 4.1830902e+01 
5.1012677e-01 2.9080975e-01 4.1931297e+01 
-3.7014309e-02 7.4967718e-01 4.1691463e+01 
-4.3632072e-01 9.6401966e-01 4.1650398e+01 
2.5847588e-02 4.9913955e-01 4.1707767e+01 
-1.5583332e-01 8.4415752e-01 4.1610870e+01 
-3.8322043e-01 8.2981020e-01 4.1595791e+01 
-3.0884841e-01 9.2456430e-01 4.1582397e+01 
-1.3665022e-01 5.9708190e-01 4.1621960e+01 
9.3565010e-02 6.1167872e-01 4.1605015e+01 
-2.6268822e-01 6.9460052e-01 4.1538593e+01 
-4.3632022e-01 9.6401656e-01 4.1513885e+01 
-3.1243213e-02 7.4732590e-01 4.1520226e+01 
2.7603787e-01 3.7115356e-01 4.1624012e+01 
2.8505871e-01 4.3281260e-01 4.1611507e+01 
5.2195001e-01 2.8233302e-01 4.1725052e+01 
3.3468332e-02 4.9260557e-01 4.1534447e+01 
-3.9853087e-01 8.5081697e-01 4.1443768e+01 
-3.2560509e-01 9.3245691e-01 4.1443577e+01 
-1.5212752e-01 8.4385180e-01 4.1437847e+01 
-1.3227913e-01 5.9230179e-01 4.1446728e+01 
-4.3631971e-01 9.6401358e-01 4.1376381e+01 
[...]
POINT_DATA 6166
FIELD FieldData 5
DISPLACEMENT 3 6166  float
2.0696528e-01 1.8899582e-01 -1.7839756e-03 
2.0588666e-01 1.8790191e-01 -1.7741953e-03 
2.0701735e-01 1.8911578e-01 -2.3487627e-03 
2.0709942e-01 1.8905294e-01 -1.1205631e-03 
2.0539193e-01 1.8746418e-01 -2.3074499e-03 
2.0552672e-01 1.8745703e-01 -1.0984318e-03 
2.0480210e-01 1.8680198e-01 -1.7643619e-03 
2.0708588e-01 1.8922986e-01 -2.7234463e-03 
2.0720932e-01 1.8915492e-01 -1.0411695e-03 
2.0598668e-01 1.8811794e-01 -2.7373452e-03 
2.0607655e-01 1.8800530e-01 -1.0240139e-03 
2.0430391e-01 1.8636224e-01 -2.3102518e-03 
2.0431627e-01 1.8623009e-01 -1.0926840e-03 
2.0486888e-01 1.8698716e-01 -2.7514633e-03 
2.0371149e-01 1.8569595e-01 -1.7544728e-03 
2.0716113e-01 1.8933152e-01 -2.9364866e-03 
2.0492515e-01 1.8683679e-01 -1.0065917e-03 
2.0728955e-01 1.8925740e-01 -1.2185345e-03 
2.0547535e-01 1.8762597e-01 -2.9560151e-03 
2.0555770e-01 1.8749958e-01 -1.1907275e-03 
2.0320980e-01 1.8525413e-01 -2.3130348e-03 
2.0320396e-01 1.8510242e-01 -1.0854818e-03 
2.0373192e-01 1.8583696e-01 -2.7657875e-03 
2.0375456e-01 1.8564886e-01 -9.8890415e-04 
2.0261477e-01 1.8458369e-01 -1.7445243e-03 
2.0434858e-01 1.8648620e-01 -2.9711735e-03 
2.0725958e-01 1.8943366e-01 -2.9558013e-03 
2.0439750e-01 1.8632251e-01 -1.1760696e-03 
2.0736441e-01 1.8937817e-01 -1.5957295e-03 
2.0210953e-01 1.8413971e-01 -2.3157923e-03 
2.0216538e-01 1.8405427e-01 -1.1190572e-03 
2.0257518e-01 1.8466674e-01 -2.7803082e-03 
2.0500799e-01 1.8715461e-01 -2.9730306e-03 
2.0320235e-01 1.8532671e-01 -2.9865541e-03 
2.0256418e-01 1.8444087e-01 -9.7094662e-04 
2.0505308e-01 1.8703754e-01 -1.6034025e-03 
2.0603321e-01 1.8819018e-01 -2.9462813e-03 
2.0321782e-01 1.8512571e-01 -1.1612814e-03 
2.0151179e-01 1.8346517e-01 -1.7345073e-03 
2.0611046e-01 1.8813559e-01 -1.8289563e-03 
2.0397255e-01 1.8610817e-01 -2.9952519e-03 
2.0399188e-01 1.8595281e-01 -1.5221771e-03 
2.0737007e-01 1.8954974e-01 -2.9889827e-03 
2.0743965e-01 1.8951726e-01 -2.1234509e-03 
2.0100296e-01 1.8301900e-01 -2.3184968e-03 
2.0105949e-01 1.8293245e-01 -1.1057219e-03 
2.0139804e-01 1.8347587e-01 -2.7950215e-03 
2.0203607e-01 1.8414693e-01 -3.0021064e-03 
2.0135345e-01 1.8321221e-01 -9.5270248e-04 
2.0201805e-01 1.8390855e-01 -1.1463191e-03 
2.0040250e-01 1.8234017e-01 -1.7243850e-03 
2.0271893e-01 1.8483780e-01 -2.9929995e-03 
2.0269617e-01 1.8464813e-01 -1.5887176e-03 
2.0458621e-01 1.8673505e-01 -3.0373505e-03 
2.0614047e-01 1.8831794e-01 -3.1055107e-03 
2.0617940e-01 1.8828714e-01 -2.5148592e-03 
2.0458098e-01 1.8663745e-01 -2.2602100e-03 
1.9994773e-01 1.8180799e-01 -1.1201195e-03 
1.9988997e-01 1.8189178e-01 -2.3211713e-03 
2.0084909e-01 1.8294618e-01 -3.0178507e-03 
2.0164703e-01 1.8375455e-01 -3.0165932e-03 
2.0019990e-01 1.8226376e-01 -2.8099203e-03 
2.0748161e-01 1.8968746e-01 -3.1952795e-03 
2.0751594e-01 1.8967444e-01 -2.7935132e-03 
2.0079757e-01 1.8267047e-01 -1.1312565e-03 
2.0159857e-01 1.8352628e-01 -1.5048765e-03 
2.0012161e-01 1.8196228e-01 -9.3421817e-04 
1.9928671e-01 1.8120877e-01 -1.7142536e-03 
2.0228299e-01 1.8440355e-01 -3.0544472e-03 
1.9877046e-01 1.8075812e-01 -2.3238403e-03 
1.9882844e-01 1.8066944e-01 -1.0787754e-03 
1.9964078e-01 1.8172386e-01 -3.0337339e-03 
2.0220885e-01 1.8423553e-01 -2.2707158e-03 
1.9898005e-01 1.8102977e-01 -2.8249463e-03 
2.0034860e-01 1.8243860e-01 -3.0131086e-03 
1.9955578e-01 1.8141083e-01 -1.1160806e-03 
1.9886819e-01 1.8069044e-01 -9.1541046e-04 
2.0025781e-01 1.8217638e-01 -1.5747258e-03 
1.9816442e-01 1.8007073e-01 -1.7040228e-03 
2.0757537e-01 1.8985687e-01 -3.8193844e-03 
2.0573469e-01 1.8799371e-01 -3.8348623e-03 
1.9764438e-01 1.7961769e-01 -2.3265055e-03 
1.9770318e-01 1.7952806e-01 -1.0650759e-03 
1.9841053e-01 1.8047936e-01 -3.0497212e-03 
1.9913140e-01 1.8120655e-01 -3.0230894e-03 
1.9912156e-01 1.8101521e-01 -1.4881158e-03 
1.9773786e-01 1.7977318e-01 -2.8400493e-03 
1.9829203e-01 1.8012902e-01 -1.1008042e-03 
1.9703542e-01 1.7892610e-01 -1.6937284e-03 
2.0389391e-01 1.8613045e-01 -3.8503292e-03 
1.9959380e-01 1.8167672e-01 -3.0372532e-03 
1.9759238e-01 1.7939611e-01 -8.9632429e-04 
2.0094416e-01 1.8306874e-01 -3.2370696e-03 
2.0099236e-01 1.8306524e-01 -2.7947892e-03 
1.9975428e-01 1.8175039e-01 -2.2837741e-03 
1.9667745e-01 1.7848034e-01 -9.8955072e-04 
1.9651167e-01 1.7847064e-01 -2.3289833e-03 
1.9789189e-01 1.7995204e-01 -3.0331463e-03 
1.9715753e-01 1.7921197e-01 -3.0658406e-03 
2.0205313e-01 1.8426716e-01 -3.8656821e-03 
1.9647259e-01 1.7849331e-01 -2.8554087e-03 
1.9773288e-01 1.7961739e-01 -1.5614777e-03 
1.9700548e-01 1.7882426e-01 -1.0852743e-03 
1.9589974e-01 1.7777467e-01 -1.6832999e-03 
1.9629347e-01 1.7807841e-01 -8.7696372e-04 
1.9910513e-01 1.8120718e-01 -3.2540967e-03 
1.9674002e-01 1.7878823e-01 -3.0593351e-03 
1.9537209e-01 1.7731686e-01 -2.3313980e-03 
1.9548480e-01 1.7727017e-01 -9.6838124e-04 
1.9588110e-01 1.7792091e-01 -3.0820682e-03 
1.9655557e-01 1.7841446e-01 -1.4718089e-03 
2.0021208e-01 1.8240295e-01 -3.8806715e-03 
1.9742492e-01 1.7948571e-01 -3.0902971e-03 
1.9518347e-01 1.7718945e-01 -2.8708417e-03 
1.9475721e-01 1.7661640e-01 -1.6727427e-03 
1.9569556e-01 1.7749597e-01 -1.0697510e-03 
1.9721220e-01 1.7917731e-01 -2.3000531e-03 
1.9497068e-01 1.7673676e-01 -8.5729826e-04 
1.9422556e-01 1.7615612e-01 -2.3338215e-03 
1.9426362e-01 1.7603377e-01 -9.6857519e-04 
1.9534311e-01 1.7737259e-01 -3.0530433e-03 
1.9458050e-01 1.7660551e-01 -3.0983230e-03 
1.9837141e-01 1.8053959e-01 -3.8956467e-03 
1.9360770e-01 1.7545137e-01 -1.6622071e-03 
1.9511580e-01 1.7696564e-01 -1.5489984e-03 
1.9386980e-01 1.7586084e-01 -2.8862755e-03 
1.9436134e-01 1.7614327e-01 -1.0539514e-03 
1.9362342e-01 1.7537050e-01 -8.3738845e-04 
1.9307224e-01 1.7498854e-01 -2.3360387e-03 
1.9313405e-01 1.7489502e-01 -1.0090580e-03 
1.9414732e-01 1.7616458e-01 -3.0803443e-03 
1.9485913e-01 1.7688899e-01 -3.1090430e-03 
1.9325496e-01 1.7526497e-01 -3.1145571e-03 
1.9389476e-01 1.7571832e-01 -1.4560552e-03 
1.9245131e-01 1.7427954e-01 -1.6516573e-03 
1.9653130e-01 1.7867717e-01 -3.9105811e-03 
1.9457699e-01 1.7651057e-01 -2.3194135e-03 
1.9253080e-01 1.7450689e-01 -2.9017783e-03 
1.9300242e-01 1.7476575e-01 -1.0382519e-03 
1.9199456e-01 1.7374277e-01 -1.0177729e-03 
1.9191191e-01 1.7381430e-01 -2.3383016e-03 
1.9225101e-01 1.7397887e-01 -8.1711262e-04 
1.9269654e-01 1.7469445e-01 -3.0724106e-03 
1.9128788e-01 1.7310055e-01 -1.6409119e-03 
1.9190395e-01 1.7389886e-01 -3.1306976e-03 
1.9240101e-01 1.7421578e-01 -1.5376848e-03 
1.9116583e-01 1.7312676e-01 -2.9172585e-03 
1.9161801e-01 1.7336257e-01 -1.0222332e-03 
1.9359089e-01 1.7562737e-01 -3.3040419e-03 
1.9469190e-01 1.7681572e-01 -3.9252760e-03 
1.9074431e-01 1.7263253e-01 -2.3405703e-03 
1.9080767e-01 1.7253709e-01 -9.8051829e-04 
1.9085251e-01 1.7256121e-01 -7.9642620e-04 
1.9145414e-01 1.7344002e-01 -3.1008283e-03 
1.9219463e-01 1.7419297e-01 -3.1281989e-03 
1.9011715e-01 1.7191461e-01 -1.6302193e-03 
1.9052623e-01 1.7250605e-01 -3.1470489e-03 
1.9113357e-01 1.7292172e-01 -1.4412559e-03 
1.9184293e-01 1.7374513e-01 -2.3423680e-03 
1.8977550e-01 1.7148453e-01 -9.1085897e-04 
1.9113040e-01 1.7303467e-01 -2.4359645e-03 
1.8958445e-01 1.7144915e-01 -2.2591585e-03 
1.8977372e-01 1.7171948e-01 -2.9327357e-03 
1.9020687e-01 1.7193286e-01 -1.0063155e-03 
1.9285317e-01 1.7495474e-01 -3.9390801e-03 
1.8942703e-01 1.7111665e-01 -7.7566167e-04 
1.8893945e-01 1.7072175e-01 -1.6193880e-03 
1.8994570e-01 1.7191178e-01 -3.0911989e-03 
1.8912123e-01 1.7108577e-01 -3.1631524e-03 
1.8852542e-01 1.7021607e-01 -8.7656494e-04 
1.8838787e-01 1.7024826e-01 -2.3443776e-03 
1.8958187e-01 1.7136165e-01 -1.5275207e-03 
1.8835394e-01 1.7028444e-01 -2.9483542e-03 
1.8876831e-01 1.7047565e-01 -9.9000125e-04 
1.8775426e-01 1.6952150e-01 -1.6083305e-03 
1.9101518e-01 1.7309536e-01 -3.9529623e-03 
1.8797386e-01 1.6964430e-01 -7.5456017e-04 
1.8949281e-01 1.7146456e-01 -3.1838282e-03 
1.8852939e-01 1.7047927e-01 -3.1003929e-03 
1.8719845e-01 1.6904542e-01 -2.3460796e-03 
1.8768790e-01 1.6963719e-01 -3.1790677e-03 
1.8826497e-01 1.7001773e-01 -1.4274275e-03 
1.8723841e-01 1.6891325e-01 -8.6527359e-04 
1.8900354e-01 1.7087445e-01 -2.3690949e-03 
1.8690546e-01 1.6882074e-01 -2.9637998e-03 
1.8656151e-01 1.6831395e-01 -1.5970516e-03 
1.8730174e-01 1.6899067e-01 -9.7392779e-04 
1.8740949e-01 1.6934425e-01 -3.0821224e-03 
1.8649209e-01 1.6814360e-01 -7.3322008e-04 
1.8600155e-01 1.6783533e-01 -2.3475981e-03 
1.8606779e-01 1.6773631e-01 -9.2195219e-04 
1.8917905e-01 1.7123850e-01 -3.9665615e-03 
1.8808423e-01 1.7005841e-01 -3.3504479e-03 
1.8622568e-01 1.6815972e-01 -3.1947424e-03 
1.8573725e-01 1.6749178e-01 -1.6917449e-03 
1.8665209e-01 1.6839726e-01 -1.5188375e-03 
1.8536159e-01 1.6709979e-01 -1.5858414e-03 
1.8542762e-01 1.6732799e-01 -2.9785116e-03 
1.8580650e-01 1.6747713e-01 -9.5820951e-04 
1.8479745e-01 1.6661817e-01 -2.3490090e-03 
1.8485215e-01 1.6650841e-01 -9.2629984e-04 
1.8560973e-01 1.6752763e-01 -3.1169788e-03 
1.8498106e-01 1.6661416e-01 -7.1183633e-04 
1.8639649e-01 1.6834095e-01 -3.2656547e-03 
1.8636189e-01 1.6822813e-01 -2.5928419e-03 
1.8734336e-01 1.6938193e-01 -3.9790547e-03 
1.8473393e-01 1.6665293e-01 -3.2099592e-03 
1.8415418e-01 1.6587861e-01 -1.5748322e-03 
1.8514390e-01 1.6687237e-01 -1.5153035e-03 
1.8391967e-01 1.6580516e-01 -2.9932435e-03 
1.8380977e-01 1.6544501e-01 -8.3656469e-04 
1.8358631e-01 1.6539429e-01 -2.3499371e-03 
1.8428127e-01 1.6593410e-01 -9.4171066e-04 
1.8410552e-01 1.6600765e-01 -3.1251754e-03 
1.8344024e-01 1.6505490e-01 -6.8990164e-04 
1.8293999e-01 1.6465026e-01 -1.5637168e-03 
1.8321112e-01 1.6511551e-01 -3.2249370e-03 
1.8452309e-01 1.6636853e-01 -2.5881811e-03 
1.8434547e-01 1.6626196e-01 -3.2235265e-03 
1.8550949e-01 1.6752802e-01 -3.9912998e-03 
1.8360566e-01 1.6531767e-01 -1.5122041e-03 
1.8243600e-01 1.6406171e-01 -8.7752187e-04 
1.8234421e-01 1.6412872e-01 -2.2596766e-03 
1.8238026e-01 1.6425163e-01 -3.0079728e-03 
1.8272580e-01 1.6436130e-01 -9.2563865e-04 
1.8171772e-01 1.6341464e-01 -1.5520509e-03 
1.8282551e-01 1.6471246e-01 -3.1102779e-03 
1.8186828e-01 1.6346522e-01 -6.6799292e-04 
1.8165691e-01 1.6354699e-01 -3.2395883e-03 
1.8114120e-01 1.6292484e-01 -2.3521697e-03 
1.8120979e-01 1.6282240e-01 -8.6229958e-04 
1.8203647e-01 1.6373265e-01 -1.5095575e-03 
1.8278100e-01 1.6461454e-01 -2.6429265e-03 
1.8367824e-01 1.6567762e-01 -4.0027420e-03 
1.8080895e-01 1.6266622e-01 -3.0223983e-03 
1.8245082e-01 1.6435418e-01 -3.2821530e-03 
1.8048763e-01 1.6217180e-01 -1.5399255e-03 
1.8113884e-01 1.6275744e-01 -9.0951950e-04 
1.8122737e-01 1.6309866e-01 -3.1132866e-03 
1.7990667e-01 1.6167918e-01 -2.3527201e-03 
1.7997599e-01 1.6157630e-01 -8.4694324e-04 
1.8026431e-01 1.6184396e-01 -6.4566481e-04 
1.8006997e-01 1.6194619e-01 -3.2539442e-03 
1.8043542e-01 1.6211641e-01 -1.5073585e-03 
1.7924978e-01 1.6092190e-01 -1.5282665e-03 
1.8102166e-01 1.6283111e-01 -2.5837438e-03 
1.8184982e-01 1.6383106e-01 -4.0131123e-03 
1.7920420e-01 1.6104814e-01 -3.0364576e-03 
1.7951922e-01 1.6112165e-01 -8.9334435e-04 
1.8068323e-01 1.6257180e-01 -3.3066918e-03 
1.7866455e-01 1.6042595e-01 -2.3530617e-03 
1.7873470e-01 1.6032267e-01 -8.3175418e-04 
1.7954597e-01 1.6140217e-01 -3.1204505e-03 
1.7862707e-01 1.6019037e-01 -6.2297168e-04 
1.7800422e-01 1.5966450e-01 -1.5168559e-03 
1.7844900e-01 1.6031221e-01 -3.2678470e-03 
1.7880113e-01 1.6046767e-01 -1.5057542e-03 
1.7741500e-01 1.5916593e-01 -2.3533117e-03 
1.7748566e-01 1.5906122e-01 -8.1605720e-04 
1.7756478e-01 1.5939634e-01 -3.0503822e-03 
1.8002465e-01 1.6198847e-01 -4.0226863e-03 
1.7786586e-01 1.5945305e-01 -8.7714364e-04 
1.7894636e-01 1.6073002e-01 -2.5246402e-03 
1.7893045e-01 1.6080570e-01 -3.3334643e-03 
1.7675088e-01 1.5839957e-01 -1.5045831e-03 
1.7783454e-01 1.5967637e-01 -3.1268769e-03 
1.7695555e-01 1.5850340e-01 -6.0036330e-04 
1.7679322e-01 1.5864405e-01 -3.2810501e-03 
1.7740290e-01 1.5907118e-01 -1.6207028e-03 
1.7615686e-01 1.5789808e-01 -2.3535013e-03 
1.7622876e-01 1.5779369e-01 -8.0132025e-04 
1.7588991e-01 1.5770963e-01 -3.0635658e-03 
1.7820185e-01 1.6014957e-01 -4.0329490e-03 
1.7548946e-01 1.5712847e-01 -1.4934228e-03 
1.7617817e-01 1.5775068e-01 -8.6089986e-04 
1.7714123e-01 1.5900120e-01 -3.3376857e-03 
1.7697950e-01 1.5876223e-01 -2.6654513e-03 
1.7610449e-01 1.5793286e-01 -3.1339866e-03 
1.7489129e-01 1.5662375e-01 -2.3539611e-03 
1.7496338e-01 1.5651834e-01 -7.8598899e-04 
1.7524937e-01 1.5678237e-01 -5.7688722e-04 
1.7510161e-01 1.5694079e-01 -3.2934938e-03 
1.7571226e-01 1.5737641e-01 -1.6981378e-03 
1.7421974e-01 1.5584876e-01 -1.4818547e-03 
1.7417938e-01 1.5598790e-01 -3.0759985e-03 
1.7418633e-01 1.5583141e-01 -1.6281744e-03 
1.7638263e-01 1.5831612e-01 -4.0423982e-03 
1.7445491e-01 1.5601380e-01 -8.4469956e-04 
1.7535965e-01 1.5720284e-01 -3.3150623e-03 
1.7361763e-01 1.5534133e-01 -2.3529599e-03 
1.7368989e-01 1.5523443e-01 -7.7030301e-04 
1.7435755e-01 1.5617409e-01 -3.1432039e-03 
1.7518081e-01 1.5695699e-01 -2.7296846e-03 
1.7350657e-01 1.5502593e-01 -5.5369182e-04 
1.7294237e-01 1.5456147e-01 -1.4691610e-03 
1.7337294e-01 1.5520148e-01 -3.3054301e-03 
1.7394879e-01 1.5560226e-01 -1.7082089e-03 
1.7233522e-01 1.5405095e-01 -2.3529038e-03 
1.7240912e-01 1.5394439e-01 -7.5487210e-04 
1.7242947e-01 1.5422869e-01 -3.0877406e-03 
1.7456637e-01 1.5648659e-01 -4.0511466e-03 
1.7269482e-01 1.5424134e-01 -8.2859886e-04 
1.7358105e-01 1.5541199e-01 -3.3173577e-03 
1.7165621e-01 1.5326740e-01 -1.4574176e-03 
1.7259435e-01 1.5440042e-01 -3.1503604e-03 
1.7341986e-01 1.5519387e-01 -2.8151241e-03 
1.7155030e-01 1.5322568e-01 -2.0296320e-03 
1.7172629e-01 1.5323339e-01 -5.2929152e-04 
1.7160551e-01 1.5342474e-01 -3.3163298e-03 
1.7104492e-01 1.5275407e-01 -2.3523839e-03 
1.7213239e-01 1.5378042e-01 -1.7532832e-03 
1.7099021e-01 1.5250908e-01 -6.7156024e-04 
1.7064124e-01 1.5243170e-01 -3.0993889e-03 
1.7036162e-01 1.5196519e-01 -1.4450504e-03 
1.7275447e-01 1.5466350e-01 -4.0588873e-03 
1.7092425e-01 1.5247065e-01 -9.0581109e-04 
1.7173228e-01 1.5355030e-01 -3.3007995e-03 
1.7084877e-01 1.5264668e-01 -3.1682421e-03 
1.7172576e-01 1.5350896e-01 -2.9864265e-03 
1.6974980e-01 1.5145232e-01 -2.3460886e-03 
1.6982435e-01 1.5134451e-01 -7.2520954e-04 
1.6990694e-01 1.5140285e-01 -5.0504314e-04 
1.6980539e-01 1.5161636e-01 -3.3262356e-03 
1.6906777e-01 1.5066428e-01 -1.4331144e-03 
1.6996007e-01 1.5159926e-01 -1.7730102e-03 
1.6882741e-01 1.5061079e-01 -3.1102065e-03 
1.7094770e-01 1.5284710e-01 -4.0646060e-03 
1.6845898e-01 1.5015426e-01 -2.3357091e-03 
1.6853400e-01 1.5004735e-01 -7.1371533e-04 
1.6908060e-01 1.5060495e-01 -7.8197120e-04 
1.6992162e-01 1.5169641e-01 -2.9934242e-03 
1.6953535e-01 1.5134400e-01 -3.3157105e-03 
1.6872984e-01 1.5051861e-01 -3.1717943e-03 
1.6778207e-01 1.4937244e-01 -1.4215828e-03 
1.6809520e-01 1.4958145e-01 -4.7999647e-04 
1.6800404e-01 1.4980842e-01 -3.3373516e-03 
1.6822706e-01 1.4982276e-01 -1.4441252e-03 
1.6717732e-01 1.4886662e-01 -2.3242801e-03 
1.6721028e-01 1.4870919e-01 -6.2688056e-04 
1.6704249e-01 1.4881968e-01 -3.1200210e-03 
1.6914430e-01 1.5103543e-01 -4.0699858e-03 
1.6727993e-01 1.4879473e-01 -7.4891513e-04 
1.6650522e-01 1.4808999e-01 -1.4093436e-03 
1.6719858e-01 1.4898281e-01 -3.1879898e-03 
1.6791575e-01 1.4963195e-01 -2.5405346e-03 
1.6808438e-01 1.4990519e-01 -3.4729850e-03 
1.6721074e-01 1.4899468e-01 -3.1808997e-03 
1.6630946e-01 1.4778791e-01 -4.5663211e-04 
1.6590330e-01 1.4758754e-01 -2.3127052e-03 
1.6597833e-01 1.4748149e-01 -6.9106603e-04 
1.6623156e-01 1.4802988e-01 -3.3467181e-03 
1.6643904e-01 1.4802343e-01 -1.3935436e-03 
1.6523670e-01 1.4681771e-01 -1.3977124e-03 
1.6528606e-01 1.4705831e-01 -3.1279470e-03 
1.6734484e-01 1.4923000e-01 -4.0766955e-03 
1.6550586e-01 1.4701261e-01 -7.1709469e-04 
1.6489719e-01 1.4638656e-01 -5.8436033e-04 
1.6463907e-01 1.4631902e-01 -2.3003079e-03 
1.6543823e-01 1.4721720e-01 -3.1991287e-03 
1.6628775e-01 1.4810230e-01 -3.4793075e-03 
1.6632260e-01 1.4808477e-01 -3.0061204e-03 
1.6454998e-01 1.4602213e-01 -4.3366477e-04 
1.6555645e-01 1.4722615e-01 -2.1967446e-03 
1.6448709e-01 1.4628145e-01 -3.3547140e-03 
1.6397767e-01 1.4555423e-01 -1.3857173e-03 
1.6516729e-01 1.4694428e-01 -3.1845882e-03 
1.6467746e-01 1.4625247e-01 -1.3448758e-03 
1.6338253e-01 1.4505841e-01 -2.2885737e-03 
1.6355707e-01 1.4532663e-01 -3.1352267e-03 
1.6554628e-01 1.4742476e-01 -4.0802751e-03 
1.6375786e-01 1.4525844e-01 -6.8629679e-04 
1.6327754e-01 1.4476059e-01 -5.4966268e-04 
1.6370605e-01 1.4548242e-01 -3.2093800e-03 
1.6272539e-01 1.4429989e-01 -1.3742683e-03 
1.6449253e-01 1.4630127e-01 -3.4849120e-03 
1.6452667e-01 1.4628343e-01 -3.0116520e-03 
1.6281608e-01 1.4428441e-01 -4.1090729e-04 
1.6277006e-01 1.4456248e-01 -3.3617197e-03 
1.6213432e-01 1.4380798e-01 -2.2752942e-03 
1.6220927e-01 1.4370343e-01 -6.5822579e-04 
1.6345328e-01 1.4510430e-01 -2.0621733e-03 
1.6337860e-01 1.4515154e-01 -3.1856266e-03 
1.6294204e-01 1.4450982e-01 -1.2976987e-03 
1.6210592e-01 1.4367801e-01 -1.3565224e-03 
1.6185559e-01 1.4362432e-01 -3.1409599e-03 
1.6148265e-01 1.4305554e-01 -1.3628055e-03 
1.6375196e-01 1.4562485e-01 -4.0832576e-03 
1.6168165e-01 1.4315122e-01 -4.2888694e-04 
1.6203567e-01 1.4353196e-01 -6.5654347e-04 
1.6200137e-01 1.4377651e-01 -3.2189442e-03 
1.6270305e-01 1.4450878e-01 -3.4891262e-03 
1.6273636e-01 1.4449067e-01 -3.0165242e-03 
1.6089553e-01 1.4256808e-01 -2.2617860e-03 
1.6096906e-01 1.4246279e-01 -6.4799521e-04 
1.6099699e-01 1.4261492e-01 -1.7742261e-03 
1.6110688e-01 1.4257327e-01 -3.9006365e-04 
1.6111596e-01 1.4275880e-01 -1.9989253e-03 
1.6108122e-01 1.4287254e-01 -3.3668110e-03 
1.6166790e-01 1.4331928e-01 -2.0693869e-03 
1.6159517e-01 1.4336655e-01 -3.1854734e-03 
1.6123240e-01 1.4279512e-01 -1.2528719e-03 
1.6024916e-01 1.4182118e-01 -1.3504726e-03 
1.6044596e-01 1.4191549e-01 -4.1867694e-04 
1.6018151e-01 1.4195009e-01 -3.1441725e-03 
1.5984735e-01 1.4134794e-01 -6.9916074e-04 
1.6033727e-01 1.4183168e-01 -6.2731758e-04 
1.6196324e-01 1.4383356e-01 -4.0851468e-03 
1.6000846e-01 1.4158034e-01 -1.3471022e-03 
1.5966538e-01 1.4133675e-01 -2.2482537e-03 
1.6032481e-01 1.4210087e-01 -3.2282574e-03 
1.6091900e-01 1.4272459e-01 -3.4924382e-03 
1.6095157e-01 1.4270620e-01 -3.0205613e-03 
1.5902419e-01 1.4059708e-01 -1.3395364e-03 
1.5942326e-01 1.4088991e-01 -3.6911547e-04 
1.5941724e-01 1.4120996e-01 -3.3706925e-03 
1.5954724e-01 1.4110672e-01 -1.2072646e-03 
1.5988754e-01 1.4154033e-01 -2.0775313e-03 
1.5981677e-01 1.4158876e-01 -3.1856177e-03 
1.5844423e-01 1.4011601e-01 -2.2351905e-03 
1.5871502e-01 1.4029601e-01 -1.4063016e-03 
1.5851691e-01 1.4001280e-01 -6.2836357e-04 
1.5853274e-01 1.4030339e-01 -3.1477739e-03 
1.5866444e-01 1.4015834e-01 -5.9927994e-04 
1.6018057e-01 1.4205045e-01 -4.0855901e-03 
1.5867324e-01 1.4045128e-01 -3.2354065e-03 
1.5780757e-01 1.3938184e-01 -1.3275160e-03 
1.5800141e-01 1.3947332e-01 -3.9586428e-04 
1.5779160e-01 1.3944541e-01 -2.0661862e-03 
1.5778098e-01 1.3957568e-01 -3.3734587e-03 
1.5776351e-01 1.3923159e-01 -3.4876799e-04 
1.5914093e-01 1.4094749e-01 -3.4944625e-03 
1.5917283e-01 1.4092875e-01 -3.0231986e-03 
1.5752648e-01 1.3910834e-01 -1.3925459e-03 
1.5738027e-01 1.3901640e-01 -1.8849436e-03 
1.5723044e-01 1.3890378e-01 -2.2213703e-03 
1.5730336e-01 1.3880187e-01 -6.1802519e-04 
1.5788575e-01 1.3944398e-01 -1.1643567e-03 
1.5811200e-01 1.3976875e-01 -2.0830554e-03 
1.5804298e-01 1.3981731e-01 -3.1843453e-03 
1.5691040e-01 1.3868427e-01 -3.1495020e-03 
1.5659885e-01 1.3817620e-01 -1.3161612e-03 
1.5679143e-01 1.3826664e-01 -3.8530250e-04 
1.5701605e-01 1.3851270e-01 -5.7288323e-04 
1.5704693e-01 1.3882880e-01 -3.2431870e-03 
1.5840317e-01 1.4027397e-01 -4.0848972e-03 
1.5602502e-01 1.3770100e-01 -2.2075197e-03 
1.5609838e-01 1.3760036e-01 -6.0795463e-04 
1.5608633e-01 1.3771543e-01 -1.7841595e-03 
1.5616925e-01 1.3796853e-01 -3.3750921e-03 
1.5612692e-01 1.3759902e-01 -3.2772479e-04 
1.5736715e-01 1.3917635e-01 -3.4954259e-03 
1.5739849e-01 1.3915737e-01 -3.0249455e-03 
1.5539818e-01 1.3697931e-01 -1.3058210e-03 