# vtk DataFile Version 4.0
vtk output
ASCII
DATASET UNSTRUCTURED_GRID
POINTS 6166 float
-4.3633327e-01 9.6409470e-01 4.4200001e+01 
-4.3633261e-01 9.6409082e-01 4.4079685e+01 
-3.2145375e-01 9.1276109e-01 4.4200001e+01 
-3.8566181e-01 8.4097892e-01 4.4200001e+01 
-3.3069235e-01 9.1895354e-01 4.4019413e+01 
-3.8473952e-01 8.3919770e-01 4.4024357e+01 
-4.3633196e-01 9.6408689e-01 4.3958702e+01 
-2.1293370e-01 8.4677851e-01 4.4200001e+01 
-2.9042658e-01 7.3813015e-01 4.4200001e+01 
-2.1019450e-01 8.4669626e-01 4.4077393e+01 
-2.8909999e-01 7.3605996e-01 4.4073399e+01 
-3.2963324e-01 9.1929907e-01 4.3898094e+01 
-3.8679782e-01 8.4179753e-01 4.3889645e+01 
-2.0740938e-01 8.4661204e-01 4.3952713e+01 
-4.3633130e-01 9.6408290e-01 4.3837040e+01 
-1.1677200e-01 7.7521002e-01 4.4200001e+01 
-2.8775173e-01 7.3395580e-01 4.3944717e+01 
-1.9365783e-01 6.6203654e-01 4.4200001e+01 
-1.1309985e-01 7.7540898e-01 4.4012005e+01 
-1.9181472e-01 6.5888047e-01 4.4006447e+01 
-3.2856464e-01 9.1964108e-01 4.3776085e+01 
-3.8823184e-01 8.4352189e-01 4.3765770e+01 
-2.0457739e-01 8.4652513e-01 4.3825886e+01 
-2.8638119e-01 7.3181647e-01 4.3813885e+01 
-4.3633065e-01 9.6407896e-01 4.3714680e+01 
-1.0911675e-01 7.7426714e-01 4.3886200e+01 
-2.1001574e-02 6.8269837e-01 4.4200001e+01 
-1.8902887e-01 6.5566909e-01 4.3876659e+01 
-7.8887597e-02 5.9015810e-01 4.4200001e+01 
-3.2748649e-01 9.1997939e-01 4.3653378e+01 
-3.9889076e-01 8.5876143e-01 4.3651733e+01 
-2.0169757e-01 8.4643483e-01 4.3696846e+01 
-7.2496021e-03 6.7325598e-01 4.3947758e+01 
-1.0504345e-01 7.7307969e-01 4.3758209e+01 
-2.8498772e-01 7.2964084e-01 4.3680840e+01 
-6.3224643e-02 5.7783771e-01 4.3940754e+01 
3.5808440e-02 6.2679136e-01 4.4056572e+01 
-1.8616955e-01 6.5238589e-01 4.3744686e+01 
-4.3632996e-01 9.6407503e-01 4.3591618e+01 
-9.8678423e-03 5.4892725e-01 4.4055367e+01 
-1.8652271e-02 6.8798620e-01 4.3834026e+01 
-7.9845116e-02 5.8636194e-01 4.3823372e+01 
8.7777540e-02 5.7885915e-01 4.4200001e+01 
5.3622175e-02 5.1732427e-01 4.4200001e+01 
-3.2639861e-01 9.2031354e-01 4.3529953e+01 
-3.9894739e-01 8.5844576e-01 4.3528313e+01 
-1.9876897e-01 8.4634024e-01 4.3565521e+01 
-1.0087753e-01 7.7184403e-01 4.3627972e+01 
-2.8357074e-01 7.2742778e-01 4.3545506e+01 
-1.8323407e-01 6.4902818e-01 4.3610458e+01 
-4.3632931e-01 9.6407109e-01 4.3467831e+01 
3.1033519e-03 6.6751039e-01 4.3691772e+01 
-5.3600248e-02 5.6906003e-01 4.3676846e+01 
1.2436585e-01 5.5082864e-01 4.3886215e+01 
1.7079005e-01 5.1095647e-01 4.4054855e+01 
1.4951277e-01 4.6697062e-01 4.4053665e+01 
1.0028158e-01 4.8915190e-01 4.3877911e+01 
-4.0513036e-01 8.6722642e-01 4.3405304e+01 
-3.2530096e-01 9.2064321e-01 4.3405800e+01 
-9.6616447e-02 7.7055699e-01 4.3495411e+01 
-8.4563000e-03 6.8258613e-01 4.3574005e+01 
-1.9579062e-01 8.4624058e-01 4.3431831e+01 
2.1753120e-01 4.7335833e-01 4.4200001e+01 
2.0360756e-01 4.4289169e-01 4.4200001e+01 
-1.8021962e-01 6.4559317e-01 4.3473904e+01 
-7.0636064e-02 5.7773441e-01 4.3555408e+01 
-2.8212959e-01 7.2517604e-01 4.3407806e+01 
-4.3632865e-01 9.6406716e-01 4.3343307e+01 
1.3810426e-01 5.4143524e-01 4.3628246e+01 
-3.2419339e-01 9.2096806e-01 4.3280907e+01 
-3.9903235e-01 8.5775709e-01 4.3279266e+01 
-9.2257597e-02 7.6921552e-01 4.3360443e+01 
1.1508528e-01 4.7804743e-01 4.3612068e+01 
-1.9276154e-01 8.4613472e-01 4.3295704e+01 
1.4013666e-02 6.6131532e-01 4.3426643e+01 
-1.7712323e-01 6.4207786e-01 4.3334946e+01 
-2.8066361e-01 7.2288430e-01 4.3267666e+01 
-4.3382257e-02 5.5983055e-01 4.3403778e+01 
-4.3632799e-01 9.6406323e-01 4.3218033e+01 
3.7877345e-01 3.8273901e-01 4.4200001e+01 
3.9076596e-01 3.7443376e-01 4.3993755e+01 
-3.2307580e-01 9.2128778e-01 4.3155251e+01 
-3.9906058e-01 8.5738426e-01 4.3153610e+01 
-8.7798268e-02 7.6781619e-01 4.3222996e+01 
1.9689407e-02 6.5803534e-01 4.3290459e+01 
-6.0862999e-02 5.6866169e-01 4.3278019e+01 
-1.8968078e-01 8.4602165e-01 4.3157055e+01 
-1.7394182e-01 6.3847917e-01 4.3193501e+01 
-4.3632734e-01 9.6405929e-01 4.3091995e+01 
4.0275589e-01 3.6612594e-01 4.3787510e+01 
1.2304078e-01 5.5709994e-01 4.3330139e+01 
-2.7917209e-01 7.2055119e-01 4.3125000e+01 
2.5336364e-01 4.4907436e-01 4.3468094e+01 
2.3670304e-01 4.1684708e-01 4.3469433e+01 
1.3086085e-01 4.6634668e-01 4.3336948e+01 
-3.8351217e-01 8.3473074e-01 4.3036392e+01 
-3.2194808e-01 9.2160189e-01 4.3028820e+01 
2.5518833e-02 6.5462554e-01 4.3151749e+01 
-8.3235659e-02 7.6635528e-01 4.3082981e+01 
4.1474071e-01 3.5781288e-01 4.3581264e+01 
-1.8654740e-01 8.4590012e-01 4.3015797e+01 
-3.2522827e-02 5.5011308e-01 4.3120937e+01 
-1.7067213e-01 6.3479382e-01 4.3049488e+01 
-4.3632668e-01 9.6405542e-01 4.2965172e+01 
-2.7765438e-01 7.1817529e-01 4.2979721e+01 
2.6620242e-01 4.4011977e-01 4.3261948e+01 
1.3584816e-02 6.7044950e-01 4.3025066e+01 
-3.2081014e-01 9.2191011e-01 4.2901604e+01 
-3.8160574e-01 8.3169121e-01 4.2902863e+01 
-7.8566879e-02 7.6482886e-01 4.2940315e+01 
-5.0480481e-02 5.5910730e-01 4.2990566e+01 
4.2671782e-01 3.4949207e-01 4.3375019e+01 
1.6821145e-01 5.2049083e-01 4.3083881e+01 
-1.8336046e-01 8.4576881e-01 4.2871841e+01 
-4.3632606e-01 9.6405160e-01 4.2837555e+01 
-1.6731077e-01 6.3101834e-01 4.2902817e+01 
1.4768846e-01 4.5400122e-01 4.3051926e+01 
-2.7610970e-01 7.1575516e-01 4.2831745e+01 
-3.1966189e-01 9.2221189e-01 4.2773579e+01 
-3.8560396e-01 8.3684862e-01 4.2767078e+01 
3.7660085e-02 6.4738947e-01 4.2866421e+01 
-7.3788933e-02 7.6323271e-01 4.2794899e+01 
4.3868470e-01 3.4116083e-01 4.3168777e+01 
-4.3632543e-01 9.6404779e-01 4.2709122e+01 
-2.0968946e-02 5.3986710e-01 4.2827656e+01 
-1.8011902e-01 8.4562629e-01 4.2725094e+01 
-1.6385415e-01 6.2714905e-01 4.2753403e+01 
-2.7453732e-01 7.1328926e-01 4.2680973e+01 
-3.1850323e-01 9.2250693e-01 4.2644733e+01 
-3.9907700e-01 8.5570478e-01 4.2643101e+01 
2.5504474e-02 6.6361672e-01 4.2734810e+01 
1.8471870e-01 5.0880390e-01 4.2796177e+01 
-6.8898737e-02 7.6156229e-01 4.2646645e+01 
-3.9438177e-02 5.4903054e-01 4.2692345e+01 
-4.3632481e-01 9.6404403e-01 4.2579861e+01 
4.5063871e-01 3.3281663e-01 4.2962532e+01 
1.6565691e-01 4.4095638e-01 4.2756321e+01 
-1.7682223e-01 8.4547096e-01 4.2575459e+01 
-1.6029853e-01 6.2318206e-01 4.2601143e+01 
-4.0415615e-01 8.6278629e-01 4.2516582e+01 
-3.1733403e-01 9.2279470e-01 4.2515053e+01 
-2.7293649e-01 7.1077597e-01 4.2527313e+01 
5.0482783e-02 6.3954860e-01 4.2569923e+01 
-4.3632418e-01 9.6404034e-01 4.2449757e+01 
-6.3893095e-02 7.5981271e-01 4.2495445e+01 
-8.6617703e-03 5.2904755e-01 4.2523201e+01 
-1.7346917e-01 8.4530097e-01 4.2422829e+01 
-1.5663996e-01 6.1911333e-01 4.2445942e+01 
3.0435190e-01 4.1341871e-01 4.2643494e+01 
4.6257737e-01 3.2445681e-01 4.2756287e+01 
-3.1615424e-01 9.2307472e-01 4.2384518e+01 
-3.9902648e-01 8.5475212e-01 4.2382885e+01 
-2.7130640e-01 7.0821363e-01 4.2370659e+01 
3.8079392e-02 6.5619886e-01 4.2433029e+01 
2.0230262e-01 4.9620378e-01 4.2497147e+01 
-4.3632355e-01 9.6403670e-01 4.2318787e+01 
-5.8768708e-02 7.5797862e-01 4.2341198e+01 
-2.7680276e-02 5.3838593e-01 4.2382599e+01 
1.8486446e-01 4.2715022e-01 4.2449394e+01 
-3.8436696e-01 8.3356136e-01 4.2264896e+01 
8.9545198e-02 5.3233254e-01 4.2382050e+01 
-3.3225983e-01 9.3122375e-01 4.2255634e+01 
-1.7005907e-01 8.4511453e-01 4.2267101e+01 
-1.5287429e-01 6.1493850e-01 4.2287693e+01 
4.7449806e-01 3.1607881e-01 4.2550037e+01 
-2.6964626e-01 7.0560038e-01 4.2210907e+01 
-4.3632296e-01 9.6403313e-01 4.2186939e+01 
6.4036883e-02 6.3103610e-01 4.2261456e+01 
-5.3522192e-02 7.5605446e-01 4.2183796e+01 
-3.7873057e-01 8.2541841e-01 4.2124020e+01 
-3.1376252e-01 9.2360973e-01 4.2120819e+01 
4.4639236e-03 5.1760370e-01 4.2206776e+01 
-1.6659111e-01 8.4490943e-01 4.2108162e+01 
-1.4899719e-01 6.1065292e-01 4.2126286e+01 
-4.3632239e-01 9.6402961e-01 4.2054195e+01 
4.8639825e-01 3.0768004e-01 4.2343792e+01 
-2.6795524e-01 7.0293444e-01 4.2047943e+01 
2.4746621e-01 4.6040925e-01 4.2191032e+01 
7.1105182e-02 6.2650448e-01 4.2102463e+01 
-3.1255043e-01 9.2386365e-01 4.1987617e+01 
-4.8150036e-02 7.5403398e-01 4.2023121e+01 
-1.5144684e-02 5.2712250e-01 4.2060505e+01 
-3.7995064e-01 8.2661813e-01 4.1980038e+01 
2.0541981e-01 4.1251117e-01 4.2130333e+01 
-1.6306458e-01 8.4468329e-01 4.1945896e+01 
-4.3632182e-01 9.6402621e-01 4.1920536e+01 
-1.4500406e-01 6.0625184e-01 4.1961609e+01 
1.3375351e-01 5.6370503e-01 4.1969833e+01 
-2.6623246e-01 7.0021385e-01 4.1881653e+01 
-3.1132740e-01 9.2410773e-01 4.1853493e+01 
-3.9880505e-01 8.5261923e-01 4.1851868e+01 
4.9827534e-01 2.9925787e-01 4.2137547e+01 
3.4194937e-01 3.8685825e-01 4.2025021e+01 
-4.2648647e-02 7.5191063e-01 4.1859051e+01 
-2.5401810e-01 7.9503769e-01 4.1808533e+01 
1.8480448e-02 5.0547802e-01 4.1877510e+01 
-4.3632126e-01 9.6402287e-01 4.1785946e+01 
-1.5947884e-01 8.4443361e-01 4.1780174e+01 
-1.4089009e-01 6.0172999e-01 4.1793541e+01 
-3.1009343e-01 9.2434150e-01 4.1718426e+01 
-4.0306881e-01 8.5845691e-01 4.1716179e+01 
8.5861288e-02 6.1683756e-01 4.1774368e+01 
-2.6447710e-01 6.9743657e-01 4.1711910e+01 
3.0427080e-01 4.1638452e-01 4.1839512e+01 
2.6751360e-01 3.7833902e-01 4.1830902e+01 
5.1012677e-01 2.9080975e-01 4.1931297e+01 
-3.7014309e-02 7.4967718e-01 4.1691463e+01 
-4.3632072e-01 9.6401966e-01 4.1650398e+01 
2.5847588e-02 4.9913955e-01 4.1707767e+01 
-1.5583332e-01 8.4415752e-01 4.1610870e+01 
-3.8322043e-01 8.2981020e-01 4.1595791e+01 
-3.0884841e-01 9.2456430e-01 4.1582397e+01 
-1.3665022e-01 5.9708190e-01 4.1621960e+01 
9.3565010e-02 6.1167872e-01 4.1605015e+01 
-2.6268822e-01 6.9460052e-01 4.1538593e+01 
-4.3632022e-01 9.6401656e-01 4.1513885e+01 
-3.1243213e-02 7.4732590e-01 4.1520226e+01 
2.7603787e-01 3.7115356e-01 4.1624012e+01 
2.8505871e-01 4.3281260e-01 4.1611507e+01 
5.2195001e-01 2.8233302e-01 4.1725052e+01 
3.3468332e-02 4.9260557e-01 4.1534447e+01 
-3.9853087e-01 8.5081697e-01 4.1443768e+01 
-3.2560509e-01 9.3245691e-01 4.1443577e+01 
-1.5212752e-01 8.4385180e-01 4.1437847e+01 
-1.3227913e-01 5.9230179e-01 4.1446728e+01 
-4.3631971e-01 9.6401358e-01 4.1376381e+01 
[...]
POINT_DATA 6166
FIELD FieldData 5
DISPLACEMENT 3 6166  float
1.0786426e+00 9.8466641e-01 -4.0744513e-02 
1.0721265e+00 9.7812092e-01 -4.0389288e-02 
1.0784835e+00 9.8442489e-01 -4.4161808e-02 
1.0785910e+00 9.8470902e-01 -3.6778882e-02 
1.0687158e+00 9.7461700e-01 -4.3466527e-02 
1.0690776e+00 9.7515380e-01 -3.6213454e-02 
1.0655744e+00 9.7153920e-01 -4.0032055e-02 
1.0783364e+00 9.8422265e-01 -4.6437170e-02 
1.0784702e+00 9.8459834e-01 -3.6327574e-02 
1.0716925e+00 9.7754520e-01 -4.6219051e-02 
1.0716122e+00 9.7771031e-01 -3.5912983e-02 
1.0621438e+00 9.6801347e-01 -4.3184556e-02 
1.0617846e+00 9.6782702e-01 -3.5846256e-02 
1.0649359e+00 9.7075468e-01 -4.5997135e-02 
1.0589855e+00 9.6492046e-01 -3.9672781e-02 
1.0782084e+00 9.8406291e-01 -4.7739830e-02 
1.0646416e+00 9.7070915e-01 -3.5491630e-02 
1.0783422e+00 9.8444366e-01 -3.7416574e-02 
1.0680219e+00 9.7382522e-01 -4.7394529e-02 
1.0678579e+00 9.7391367e-01 -3.6773250e-02 
1.0555346e+00 9.6137267e-01 -4.2900793e-02 
1.0550777e+00 9.6108943e-01 -3.5497166e-02 
1.0580633e+00 9.6384746e-01 -4.5771208e-02 
1.0575547e+00 9.6359122e-01 -3.5063367e-02 
1.0523590e+00 9.5826417e-01 -3.9311454e-02 
1.0612029e+00 9.6697176e-01 -4.7176436e-02 
1.0780849e+00 9.8393530e-01 -4.7880478e-02 
1.0608253e+00 9.6684986e-01 -3.6366135e-02 
1.0781869e+00 9.8423290e-01 -3.9708756e-02 
1.0488877e+00 9.5469397e-01 -4.2615164e-02 
1.0489150e+00 9.5489281e-01 -3.5414401e-02 
1.0510708e+00 9.5682001e-01 -4.5541048e-02 
1.0644058e+00 9.7018874e-01 -4.7365572e-02 
1.0542659e+00 9.5999974e-01 -4.6954237e-02 
1.0503480e+00 9.5635307e-01 -3.4628060e-02 
1.0641263e+00 9.7010434e-01 -3.9119937e-02 
1.0702443e+00 9.7605836e-01 -4.7484551e-02 
1.0536746e+00 9.5966750e-01 -3.5952866e-02 
1.0456946e+00 9.5156974e-01 -3.8948096e-02 
1.0702602e+00 9.7623461e-01 -4.0769093e-02 
1.0582607e+00 9.6401143e-01 -4.7215559e-02 
1.0577919e+00 9.6375185e-01 -3.8339112e-02 
1.0779444e+00 9.8378849e-01 -4.8107658e-02 
1.0780058e+00 9.8397440e-01 -4.2908322e-02 
1.0422025e+00 9.4797707e-01 -4.2327758e-02 
1.0422314e+00 9.4817978e-01 -3.5030309e-02 
1.0439550e+00 9.4966871e-01 -4.5306437e-02 
1.0472071e+00 9.5290554e-01 -4.6727654e-02 
1.0430177e+00 9.4899082e-01 -3.4185383e-02 
1.0464021e+00 9.5236290e-01 -3.5533085e-02 
1.0389915e+00 9.4483680e-01 -3.8582433e-02 
1.0505288e+00 9.5624310e-01 -4.6856970e-02 
1.0498213e+00 9.5573407e-01 -3.8384046e-02 
1.0609020e+00 9.6665806e-01 -4.7633678e-02 
1.0699743e+00 9.7576320e-01 -4.8470352e-02 
1.0699492e+00 9.7582269e-01 -4.4919986e-02 
1.0604990e+00 9.6636462e-01 -4.2946968e-02 
1.0355785e+00 9.4149375e-01 -3.4811612e-02 
1.0354781e+00 9.4122106e-01 -4.2038150e-02 
1.0400229e+00 9.4568533e-01 -4.6496425e-02 
1.0441656e+00 9.4984674e-01 -4.6705224e-02 
1.0367118e+00 9.4238949e-01 -4.5067120e-02 
1.0777732e+00 9.8358607e-01 -4.9378652e-02 
1.0777992e+00 9.8366988e-01 -4.6965934e-02 
1.0390040e+00 9.4493228e-01 -3.5107013e-02 
1.0432688e+00 9.4916302e-01 -3.7577379e-02 
1.0355603e+00 9.4150108e-01 -3.3735577e-02 
1.0322492e+00 9.3806463e-01 -3.8214915e-02 
1.0469131e+00 9.5260054e-01 -4.7103696e-02 
1.0287147e+00 9.3442613e-01 -4.1747048e-02 
1.0287474e+00 9.3463695e-01 -3.4254719e-02 
1.0327092e+00 9.3833530e-01 -4.6260245e-02 
1.0460823e+00 9.5187831e-01 -4.2358708e-02 
1.0293373e+00 9.3497890e-01 -4.4822726e-02 
1.0361573e+00 9.4180119e-01 -4.6326797e-02 
1.0314765e+00 9.3737191e-01 -3.4674380e-02 
1.0279713e+00 9.3387949e-01 -3.3277750e-02 
1.0350215e+00 9.4086713e-01 -3.7629679e-02 
1.0254673e+00 9.3125290e-01 -3.7845034e-02 
1.0775533e+00 9.8327440e-01 -5.3163305e-02 
1.0663674e+00 9.7203296e-01 -5.2750841e-02 
1.0219109e+00 9.2759055e-01 -4.1453786e-02 
1.0219460e+00 9.2780584e-01 -3.3863150e-02 
1.0252622e+00 9.3085176e-01 -4.6018828e-02 
1.0287765e+00 9.3438476e-01 -4.6052709e-02 
1.0282375e+00 9.3406421e-01 -3.6795739e-02 
1.0218272e+00 9.2743260e-01 -4.4572886e-02 
1.0238158e+00 9.2967802e-01 -3.4235038e-02 
1.0186447e+00 9.2440075e-01 -3.7473023e-02 
1.0551816e+00 9.6079189e-01 -5.2338015e-02 
1.0307908e+00 9.3640536e-01 -4.6261799e-02 
1.0202471e+00 9.2612273e-01 -3.2812387e-02 
1.0380884e+00 9.4370747e-01 -4.7833718e-02 
1.0381912e+00 9.4387406e-01 -4.5181740e-02 
1.0311641e+00 9.3688852e-01 -4.1763414e-02 
1.0155830e+00 9.2142481e-01 -3.3126190e-02 
1.0150665e+00 9.2071509e-01 -4.1157957e-02 
1.0212603e+00 9.2683291e-01 -4.5772601e-02 
1.0176774e+00 9.2323047e-01 -4.5772035e-02 
1.0439968e+00 9.4955224e-01 -5.1924452e-02 
1.0141778e+00 9.1974652e-01 -4.4318262e-02 
1.0196961e+00 9.2547351e-01 -3.6856502e-02 
1.0160170e+00 9.2184639e-01 -3.3788253e-02 
1.0117815e+00 9.1750818e-01 -3.7098654e-02 
1.0123833e+00 9.1822606e-01 -3.2339007e-02 
1.0269105e+00 9.3247509e-01 -4.7430974e-02 
1.0144191e+00 9.1995722e-01 -4.5614734e-02 
1.0081807e+00 9.1379893e-01 -4.0860403e-02 
1.0083551e+00 9.1416770e-01 -3.2671243e-02 
1.0099505e+00 9.1546696e-01 -4.5519348e-02 
1.0126660e+00 9.1842461e-01 -3.5992995e-02 
1.0328145e+00 9.3831503e-01 -5.1509082e-02 
1.0174013e+00 9.2294705e-01 -4.5984264e-02 
1.0063840e+00 9.1191626e-01 -4.4057481e-02 
1.0048760e+00 9.1057414e-01 -3.6721792e-02 
1.0080767e+00 9.1387290e-01 -3.3335149e-02 
1.0157140e+00 9.2136580e-01 -4.1162979e-02 
1.0043752e+00 9.1018581e-01 -3.1857599e-02 
1.0012528e+00 9.0684086e-01 -4.0560354e-02 
1.0010145e+00 9.0679473e-01 -3.2337643e-02 
1.0058041e+00 9.1130525e-01 -4.5192320e-02 
1.0020773e+00 9.0755707e-01 -4.5260515e-02 
1.0216326e+00 9.2707914e-01 -5.1093206e-02 
9.9792874e-01 9.0359885e-01 -3.6343172e-02 
1.0038117e+00 9.0952063e-01 -3.6063094e-02 
9.9844164e-01 9.0393782e-01 -4.3790348e-02 
9.9998939e-01 9.0575325e-01 -3.2874044e-02 
9.9621928e-01 9.0199769e-01 -3.1368461e-02 
9.9428320e-01 8.9984149e-01 -4.0257737e-02 
9.9432653e-01 9.0007275e-01 -3.2272104e-02 
9.9870062e-01 9.0416700e-01 -4.5029309e-02 
1.0018128e+00 9.0728706e-01 -4.5392171e-02 
9.9405307e-01 8.9949661e-01 -4.4994589e-02 
9.9651945e-01 9.0221047e-01 -3.5168093e-02 
9.9093992e-01 8.9658207e-01 -3.5962980e-02 
1.0104556e+00 9.1585046e-01 -5.0676275e-02 
9.9969745e-01 9.0527564e-01 -4.0556133e-02 
9.9034649e-01 8.9580727e-01 -4.3516647e-02 
9.9175245e-01 8.9748347e-01 -3.2407012e-02 
9.8749262e-01 8.9321005e-01 -3.2012697e-02 
9.8727143e-01 8.9280164e-01 -3.9954018e-02 
9.8791099e-01 8.9365715e-01 -3.0870061e-02 
9.8975408e-01 8.9518428e-01 -4.4582214e-02 
9.8390794e-01 8.8952327e-01 -3.5579786e-02 
9.8587441e-01 8.9128250e-01 -4.4721790e-02 
9.8733491e-01 8.9297652e-01 -3.5250537e-02 
9.8209345e-01 8.8751912e-01 -4.3236163e-02 
9.8336142e-01 8.8906026e-01 -3.1930886e-02 
9.9340039e-01 8.9881051e-01 -4.6215620e-02 
9.9928433e-01 9.0462965e-01 -5.0257996e-02 
9.8021603e-01 8.8571697e-01 -3.9647870e-02 
9.8026359e-01 8.8595623e-01 -3.1463183e-02 
9.7944504e-01 8.8516021e-01 -3.0362736e-02 
9.8237240e-01 8.8776946e-01 -4.4414200e-02 
9.8562384e-01 8.9102834e-01 -4.4775587e-02 
9.7683269e-01 8.8242137e-01 -3.5195224e-02 
9.7753388e-01 8.8290709e-01 -4.4442598e-02 
9.7976470e-01 8.8539004e-01 -3.4321811e-02 
9.8308122e-01 8.8858849e-01 -3.9944034e-02 
9.7387403e-01 8.7955117e-01 -3.0760853e-02 
9.7956461e-01 8.8504535e-01 -4.0315039e-02 
9.7327781e-01 8.7876356e-01 -3.8840711e-02 
9.7367752e-01 8.7906849e-01 -4.2948611e-02 
9.7480810e-01 8.8047642e-01 -3.1448688e-02 
9.8811793e-01 8.9341354e-01 -4.9836684e-02 
9.7081643e-01 8.7650192e-01 -2.9847901e-02 
9.6971464e-01 8.7527823e-01 -3.4808360e-02 
9.7307098e-01 8.7843329e-01 -4.3941267e-02 
9.6902829e-01 8.7436658e-01 -4.4155139e-02 
9.6626270e-01 8.7191731e-01 -3.0212998e-02 
9.6597618e-01 8.7142253e-01 -3.9026685e-02 
9.7022539e-01 8.7580228e-01 -3.4416746e-02 
9.6509409e-01 8.7045115e-01 -4.2654693e-02 
9.6608931e-01 8.7172818e-01 -3.0957079e-02 
9.6255237e-01 8.6809123e-01 -3.4418557e-02 
9.7695804e-01 8.8220811e-01 -4.9413972e-02 
9.6202022e-01 8.6767691e-01 -2.9323507e-02 
9.6903038e-01 8.7436330e-01 -4.4368505e-02 
9.6448106e-01 8.6980915e-01 -4.3608449e-02 
9.5878911e-01 8.6421126e-01 -3.8713187e-02 
9.6035159e-01 8.6565650e-01 -4.3858677e-02 
9.6235889e-01 8.6792201e-01 -3.3452787e-02 
9.5849651e-01 8.6412603e-01 -2.9794054e-02 
9.6582395e-01 8.7126142e-01 -3.9326128e-02 
9.5633739e-01 8.6166149e-01 -4.2351663e-02 
9.5534360e-01 8.6086023e-01 -3.4025922e-02 
9.5720136e-01 8.6281216e-01 -3.0459944e-02 
9.5724630e-01 8.6255234e-01 -4.3188889e-02 
9.5305234e-01 8.5868263e-01 -2.8791174e-02 
9.5155716e-01 8.5695583e-01 -3.8395852e-02 
9.5161116e-01 8.5720974e-01 -2.9816985e-02 
9.6581042e-01 8.7101871e-01 -4.8989497e-02 
9.5994967e-01 8.6522537e-01 -4.4981480e-02 
9.5150036e-01 8.5677320e-01 -4.3553166e-02 
9.4907719e-01 8.5455948e-01 -3.4365777e-02 
9.5244586e-01 8.5796297e-01 -3.3562824e-02 
9.4809198e-01 8.5358852e-01 -3.3631600e-02 
9.4740415e-01 8.5269880e-01 -4.2037003e-02 
9.4814044e-01 8.5372442e-01 -2.9957404e-02 
9.4428122e-01 8.4965849e-01 -3.8076539e-02 
9.4430965e-01 8.4988719e-01 -2.9513324e-02 
9.4677496e-01 8.5204208e-01 -4.2909093e-02 
9.4390815e-01 8.4951502e-01 -2.8251315e-02 
9.4999695e-01 8.5525155e-01 -4.4009283e-02 
9.4959235e-01 8.5494262e-01 -3.9948300e-02 
9.5466769e-01 8.5983336e-01 -4.8560277e-02 
9.4247091e-01 8.4771377e-01 -4.3237634e-02 
9.4079608e-01 8.4627414e-01 -3.3237807e-02 
9.4329506e-01 8.4878594e-01 -3.3131085e-02 
9.3829000e-01 8.4355617e-01 -4.1714579e-02 
9.3780893e-01 8.4338164e-01 -2.8689492e-02 
9.3696392e-01 8.4232169e-01 -3.7753075e-02 
9.3889916e-01 8.4446138e-01 -2.9443281e-02 
9.3765366e-01 8.4289294e-01 -4.2547725e-02 
9.3458539e-01 8.4017044e-01 -2.7701400e-02 
9.3346024e-01 8.3891910e-01 -3.2841671e-02 
9.3325460e-01 8.3847183e-01 -4.2912312e-02 
9.3844461e-01 8.4376353e-01 -3.9418019e-02 
9.3774933e-01 8.4297419e-01 -4.3195315e-02 
9.4354135e-01 8.4867060e-01 -4.8128497e-02 
9.3396235e-01 8.3943015e-01 -3.2692481e-02 
9.2966211e-01 8.3520645e-01 -2.8564608e-02 
9.2953056e-01 8.3488047e-01 -3.6873087e-02 
9.2898661e-01 8.3422965e-01 -4.1384764e-02 
9.2947596e-01 8.3501840e-01 -2.8924620e-02 
9.2607629e-01 8.3151984e-01 -3.2441065e-02 
9.2966563e-01 8.3488792e-01 -4.2106308e-02 
9.2507535e-01 8.3064252e-01 -2.7144143e-02 
9.2384940e-01 8.2904351e-01 -4.2577367e-02 
9.2219472e-01 8.2751822e-01 -3.7103478e-02 
9.2225254e-01 8.2778591e-01 -2.8142130e-02 
9.2444396e-01 8.2989198e-01 -3.2249998e-02 
9.2783314e-01 8.3311915e-01 -3.9271340e-02 
9.3243271e-01 8.3753049e-01 -4.7695328e-02 
9.1949242e-01 8.2471365e-01 -4.1044652e-02 
9.2607969e-01 8.3126926e-01 -4.3029238e-02 
9.1864622e-01 8.2407933e-01 -3.2035712e-02 
9.1986352e-01 8.2539004e-01 -2.8398134e-02 
9.1984874e-01 8.2505149e-01 -4.1687921e-02 
9.1473955e-01 8.2005197e-01 -3.6772944e-02 
9.1479897e-01 8.2032567e-01 -2.7717525e-02 
9.1537398e-01 8.2092792e-01 -2.6576627e-02 
9.1424763e-01 8.1942254e-01 -4.2232528e-02 
9.1473383e-01 8.2016659e-01 -3.1802610e-02 
9.1117066e-01 8.1659698e-01 -3.1631738e-02 
9.1722143e-01 8.2249749e-01 -3.8435787e-02 
9.2134368e-01 8.2641518e-01 -4.7258083e-02 
9.0979785e-01 8.1500244e-01 -4.0694524e-02 
9.1005540e-01 8.1557113e-01 -2.7863562e-02 
9.1531020e-01 8.2047749e-01 -4.2693384e-02 
9.0723962e-01 8.1254214e-01 -3.6439363e-02 
9.0730178e-01 8.1282121e-01 -2.7291656e-02 
9.0963817e-01 8.1482506e-01 -4.1273002e-02 
9.0547353e-01 8.1102073e-01 -2.5999784e-02 
9.0365058e-01 8.0906934e-01 -3.1227889e-02 
9.0444183e-01 8.0960351e-01 -4.1876666e-02 
9.0482455e-01 8.1024665e-01 -3.1350210e-02 
8.9969635e-01 8.0499226e-01 -3.6104329e-02 
8.9975834e-01 8.0527133e-01 -2.6861506e-02 
8.9989603e-01 8.0509084e-01 -4.0335417e-02 
9.1027564e-01 8.1532657e-01 -4.6816930e-02 
9.0004516e-01 8.0555618e-01 -2.7321147e-02 
9.0469563e-01 8.0996478e-01 -3.7516199e-02 
9.0462768e-01 8.0977666e-01 -4.2376392e-02 
8.9608318e-01 8.0149895e-01 -3.0817486e-02 
8.9926374e-01 8.0443990e-01 -4.0847614e-02 
8.9536828e-01 8.0091476e-01 -2.5415678e-02 
8.9442790e-01 7.9958147e-01 -4.1507378e-02 
8.9621407e-01 8.0161399e-01 -3.1665701e-02 
8.9210111e-01 7.9739547e-01 -3.5766553e-02 
8.9216822e-01 7.9768419e-01 -2.6436651e-02 
8.8978326e-01 7.9497355e-01 -3.9962366e-02 
8.9922756e-01 8.0426270e-01 -4.6381246e-02 
8.8847005e-01 7.9389000e-01 -3.0413687e-02 
8.8983005e-01 7.9534137e-01 -2.6770916e-02 
8.9379871e-01 7.9893923e-01 -4.1914698e-02 
8.9265680e-01 7.9789692e-01 -3.7827823e-02 
8.8886565e-01 7.9403657e-01 -4.0422559e-02 
8.8446456e-01 7.8976148e-01 -3.5430819e-02 
8.8452917e-01 7.9005152e-01 -2.6007719e-02 
8.8505697e-01 7.9060739e-01 -2.4818344e-02 
8.8420010e-01 7.8935206e-01 -4.1125312e-02 
8.8588458e-01 7.9127252e-01 -3.1675018e-02 
8.8080817e-01 7.8623277e-01 -3.0004770e-02 
8.7945825e-01 7.8464800e-01 -3.9577559e-02 
8.7928677e-01 7.8468883e-01 -3.0866355e-02 
8.8820398e-01 7.9323435e-01 -4.5940042e-02 
8.7940311e-01 7.8492135e-01 -2.6212975e-02 
8.8309777e-01 7.8823906e-01 -4.1297890e-02 
8.7677962e-01 7.8208154e-01 -3.5083607e-02 
8.7684304e-01 7.8237021e-01 -2.5574073e-02 
8.7838030e-01 7.8355294e-01 -4.0007137e-02 
8.8170278e-01 7.8693259e-01 -3.7727501e-02 
8.7452877e-01 7.8009045e-01 -2.4215776e-02 
8.7310123e-01 7.7853268e-01 -2.9588416e-02 
8.7375081e-01 7.7890766e-01 -4.0732142e-02 
8.7518996e-01 7.8058529e-01 -3.1261455e-02 
8.6904472e-01 7.7435440e-01 -3.4740534e-02 
8.6911553e-01 7.7465320e-01 -2.5142292e-02 
8.6889905e-01 7.7410138e-01 -3.9178070e-02 
8.7719852e-01 7.8222841e-01 -4.5497015e-02 
8.6875641e-01 7.7428931e-01 -2.5648294e-02 
8.7233716e-01 7.7748370e-01 -4.0831760e-02 
8.6534542e-01 7.7079052e-01 -2.9177168e-02 
8.6774981e-01 7.7293366e-01 -3.9575152e-02 
8.7096268e-01 7.7618819e-01 -3.7767440e-02 
8.6346430e-01 7.6883209e-01 -3.2579333e-02 
8.6377728e-01 7.6936024e-01 -2.3597933e-02 
8.6307120e-01 7.6824224e-01 -4.0323369e-02 
8.6126441e-01 7.6659173e-01 -3.4395467e-02 
8.6414337e-01 7.6954889e-01 -3.1049723e-02 
8.6037266e-01 7.6593900e-01 -2.4266681e-02 
8.5811317e-01 7.6333350e-01 -3.8769457e-02 
8.5753858e-01 7.6300412e-01 -2.8760700e-02 
8.6622721e-01 7.7126896e-01 -4.5048736e-02 
8.5789686e-01 7.6344085e-01 -2.5643272e-02 
8.6122245e-01 7.6639187e-01 -4.0232431e-02 
8.5733485e-01 7.6253384e-01 -3.9214462e-02 
8.6056566e-01 7.6578420e-01 -3.8338840e-02 
8.5345984e-01 7.5880754e-01 -3.4013018e-02 
8.5353065e-01 7.5910771e-01 -2.4283322e-02 
8.5279763e-01 7.5840837e-01 -2.2973530e-02 
8.5220855e-01 7.5740463e-01 -3.9899785e-02 
8.4974027e-01 7.5522667e-01 -2.8348135e-02 
8.5097998e-01 7.5641280e-01 -3.0590562e-02 
8.4717745e-01 7.5242782e-01 -3.8351104e-02 
8.5529554e-01 7.6036006e-01 -4.4593740e-02 
8.4568787e-01 7.5105560e-01 -3.3609204e-02 
8.4576321e-01 7.5136048e-01 -2.3876457e-02 
8.4693617e-01 7.5252634e-01 -2.4413342e-02 
8.4964889e-01 7.5489306e-01 -3.7895873e-02 
8.4790611e-01 7.5310731e-01 -3.9730366e-02 
8.4452760e-01 7.4976516e-01 -3.8670994e-02 
8.4199494e-01 7.4750358e-01 -2.7942033e-02 
8.4186888e-01 7.4751401e-01 -2.2348300e-02 
8.4137064e-01 7.4659783e-01 -3.9486334e-02 
8.4085351e-01 7.4636763e-01 -2.8158117e-02 
8.3797401e-01 7.4336827e-01 -3.3203736e-02 
8.3759248e-01 7.4322581e-01 -2.3008490e-02 
8.3642256e-01 7.4170434e-01 -3.7935991e-02 
8.4438944e-01 7.4948543e-01 -4.4138703e-02 
8.3609027e-01 7.4172312e-01 -2.3743322e-02 
8.3430344e-01 7.3984104e-01 -2.7534336e-02 
8.3538705e-01 7.4065071e-01 -3.8361426e-02 
8.3791745e-01 7.4327159e-01 -3.4645595e-02 
8.3870363e-01 7.4391472e-01 -4.0279359e-02 
8.3446538e-01 7.3973280e-01 -3.8307119e-02 
8.3110321e-01 7.3679113e-01 -2.1743473e-02 
8.3030784e-01 7.3573357e-01 -3.2798167e-02 
8.3038586e-01 7.3603928e-01 -2.3075970e-02 
8.3071220e-01 7.3597127e-01 -3.9070282e-02 
8.3010125e-01 7.3566312e-01 -2.7384914e-02 
8.2666796e-01 7.3224020e-01 -2.7134234e-02 
8.2584620e-01 7.3116571e-01 -3.7516568e-02 
8.3351505e-01 7.3865050e-01 -4.3695118e-02 
8.2541257e-01 7.3109394e-01 -2.3091407e-02 
8.2361370e-01 7.2931331e-01 -2.2155175e-02 
8.2270664e-01 7.2816765e-01 -3.2392070e-02 
8.2482779e-01 7.3012727e-01 -3.7959017e-02 
8.2784522e-01 7.3309481e-01 -3.9835487e-02 
8.2788992e-01 7.3320913e-01 -3.7008047e-02 
8.2050449e-01 7.2624117e-01 -2.1151043e-02 
8.2396740e-01 7.2942442e-01 -3.1962559e-02 
8.2022846e-01 7.2553223e-01 -3.8654957e-02 
8.1909418e-01 7.2469914e-01 -2.6734661e-02 
8.2210785e-01 7.2742039e-01 -3.7783682e-02 
8.1951809e-01 7.2513491e-01 -2.6632553e-02 
8.1515646e-01 7.2065115e-01 -3.1992171e-02 
8.1544119e-01 7.2081089e-01 -3.7104730e-02 
8.2265508e-01 7.2782952e-01 -4.3229766e-02 
8.1490016e-01 7.2063798e-01 -2.2455720e-02 
8.1381756e-01 7.1956831e-01 -2.1528212e-02 
8.1444389e-01 7.1979338e-01 -3.7560880e-02 
8.1156439e-01 7.1721393e-01 -2.6342388e-02 
8.1700689e-01 7.2229505e-01 -3.9388757e-02 
8.1704795e-01 7.2240669e-01 -3.6563940e-02 
8.1006718e-01 7.1586531e-01 -2.0570764e-02 
8.0991781e-01 7.1527642e-01 -3.8241737e-02 
8.0765706e-01 7.1319962e-01 -3.1588007e-02 
8.0773765e-01 7.1350527e-01 -2.1908434e-02 
8.1140029e-01 7.1694267e-01 -3.0605186e-02 
8.1130570e-01 7.1667159e-01 -3.7312821e-02 
8.0909920e-01 7.1478122e-01 -2.5901385e-02 
8.0601394e-01 7.1169662e-01 -2.6057051e-02 
8.0521250e-01 7.1064168e-01 -3.6692098e-02 
8.0409563e-01 7.0978963e-01 -2.5954975e-02 
8.1183255e-01 7.1705306e-01 -4.2764813e-02 
8.0378962e-01 7.0961964e-01 -2.0391833e-02 
8.0455297e-01 7.1035445e-01 -2.1838369e-02 
8.0423492e-01 7.0964170e-01 -3.7166115e-02 
8.0621392e-01 7.1156186e-01 -3.8937185e-02 
8.0625051e-01 7.1167111e-01 -3.6119264e-02 
8.0022019e-01 7.0581561e-01 -3.1186679e-02 
8.0029196e-01 7.0611107e-01 -2.1531364e-02 
7.9985547e-01 7.0551711e-01 -2.8279077e-02 
7.9978830e-01 7.0565552e-01 -2.0010853e-02 
7.9985762e-01 7.0548713e-01 -2.9646521e-02 
7.9978693e-01 7.0520544e-01 -3.7825167e-02 
8.0063325e-01 7.0624769e-01 -3.0182499e-02 
8.0054760e-01 7.0598185e-01 -3.6839742e-02 
7.9884863e-01 7.0460290e-01 -2.5198262e-02 
7.9668599e-01 7.0243365e-01 -2.5564164e-02 
7.9637772e-01 7.0226169e-01 -2.0019930e-02 
7.9515475e-01 7.0065171e-01 -3.6269814e-02 
7.9367757e-01 6.9953752e-01 -2.1554884e-02 
7.9435951e-01 7.0023918e-01 -2.1232553e-02 
8.0105501e-01 7.0634139e-01 -4.2296495e-02 
7.9346120e-01 6.9923133e-01 -2.5463365e-02 
7.9283994e-01 6.9848698e-01 -3.0785292e-02 
7.9420406e-01 6.9968063e-01 -3.6782980e-02 
7.9546535e-01 7.0088971e-01 -3.8484022e-02 
7.9549813e-01 7.0099646e-01 -3.5673015e-02 
7.8933650e-01 6.9514138e-01 -2.5187813e-02 
7.8967667e-01 6.9562489e-01 -1.9461069e-02 
7.8981149e-01 6.9530660e-01 -3.7410259e-02 
7.8875369e-01 6.9459295e-01 -2.4492523e-02 
7.8990990e-01 6.9559944e-01 -2.9770933e-02 
7.8983164e-01 6.9534487e-01 -3.6375143e-02 
7.8552151e-01 6.9122851e-01 -3.0393133e-02 
7.8583598e-01 6.9166213e-01 -2.5489442e-02 
7.8559130e-01 6.9152868e-01 -2.0796319e-02 
7.8526151e-01 6.9083315e-01 -3.5861719e-02 
7.8432781e-01 6.9028819e-01 -2.0644143e-02 
7.9032516e-01 6.9568956e-01 -4.1823268e-02 
7.8433287e-01 6.8988425e-01 -3.6390774e-02 
7.8204137e-01 6.8791008e-01 -2.4806896e-02 
7.8173572e-01 6.8774033e-01 -1.9268230e-02 
7.7993196e-01 6.8570578e-01 -2.9192768e-02 
7.8001481e-01 6.8558675e-01 -3.6998805e-02 
7.7971518e-01 6.8574870e-01 -1.8926419e-02 
7.8476465e-01 6.9027054e-01 -3.8027305e-02 
7.8479397e-01 6.9037396e-01 -3.5222750e-02 
7.7884775e-01 6.8473375e-01 -2.5106460e-02 
7.7859604e-01 6.8441486e-01 -2.8020656e-02 
7.7825063e-01 6.8402499e-01 -3.0000361e-02 
7.7832383e-01 6.8432885e-01 -2.0430973e-02 
7.7881056e-01 6.8474269e-01 -2.3815235e-02 
7.7922595e-01 6.8500835e-01 -2.9346783e-02 
7.7915442e-01 6.8475920e-01 -3.5902902e-02 
7.7553642e-01 6.8119282e-01 -3.5449464e-02 
7.7479929e-01 6.8074024e-01 -2.4434829e-02 
7.7449721e-01 6.8057394e-01 -1.8905705e-02 
7.7446043e-01 6.8051976e-01 -2.0075181e-02 
7.7462000e-01 6.8025482e-01 -3.6016013e-02 
7.7963847e-01 6.8508947e-01 -4.1346304e-02 
7.7103627e-01 6.7688304e-01 -2.9611165e-02 
7.7111524e-01 6.7719114e-01 -2.0070920e-02 
7.7043831e-01 6.7634761e-01 -2.7083535e-02 
7.7037668e-01 6.7603993e-01 -3.6590178e-02 
7.6990801e-01 6.7604035e-01 -1.8393768e-02 
7.7410078e-01 6.7969954e-01 -3.7567142e-02 
7.7412754e-01 6.7980051e-01 -3.4770198e-02 
7.6761192e-01 6.7362565e-01 -2.4074001e-02 