# vtk DataFile Version 4.0
vtk output
ASCII
DATASET UNSTRUCTURED_GRID
POINTS 6166 float
-4.3633327e-01 9.6409470e-01 4.4200001e+01 
-4.3633261e-01 9.6409082e-01 4.4079685e+01 
-3.2145375e-01 9.1276109e-01 4.4200001e+01 
-3.8566181e-01 8.4097892e-01 4.4200001e+01 
-3.3069235e-01 9.1895354e-01 4.4019413e+01 
-3.8473952e-01 8.3919770e-01 4.4024357e+01 
-4.3633196e-01 9.6408689e-01 4.3958702e+01 
-2.1293370e-01 8.4677851e-01 4.4200001e+01 
-2.9042658e-01 7.3813015e-01 4.4200001e+01 
-2.1019450e-01 8.4669626e-01 4.4077393e+01 
-2.8909999e-01 7.3605996e-01 4.4073399e+01 
-3.2963324e-01 9.1929907e-01 4.3898094e+01 
-3.8679782e-01 8.4179753e-01 4.3889645e+01 
-2.0740938e-01 8.4661204e-01 4.3952713e+01 
-4.3633130e-01 9.6408290e-01 4.3837040e+01 
-1.1677200e-01 7.7521002e-01 4.4200001e+01 
-2.8775173e-01 7.3395580e-01 4.3944717e+01 
-1.9365783e-01 6.6203654e-01 4.4200001e+01 
-1.1309985e-01 7.7540898e-01 4.4012005e+01 
-1.9181472e-01 6.5888047e-01 4.4006447e+01 
-3.2856464e-01 9.1964108e-01 4.3776085e+01 
-3.8823184e-01 8.4352189e-01 4.3765770e+01 
-2.0457739e-01 8.4652513e-01 4.3825886e+01 
-2.8638119e-01 7.3181647e-01 4.3813885e+01 
-4.3633065e-01 9.6407896e-01 4.3714680e+01 
-1.0911675e-01 7.7426714e-01 4.3886200e+01 
-2.1001574e-02 6.8269837e-01 4.4200001e+01 
-1.8902887e-01 6.5566909e-01 4.3876659e+01 
-7.8887597e-02 5.9015810e-01 4.4200001e+01 
-3.2748649e-01 9.1997939e-01 4.3653378e+01 
-3.9889076e-01 8.5876143e-01 4.3651733e+01 
-2.0169757e-01 8.4643483e-01 4.3696846e+01 
-7.2496021e-03 6.7325598e-01 4.3947758e+01 
-1.0504345e-01 7.7307969e-01 4.3758209e+01 
-2.8498772e-01 7.2964084e-01 4.3680840e+01 
-6.3224643e-02 5.7783771e-01 4.3940754e+01 
3.5808440e-02 6.2679136e-01 4.4056572e+01 
-1.8616955e-01 6.5238589e-01 4.3744686e+01 
-4.3632996e-01 9.6407503e-01 4.3591618e+01 
-9.8678423e-03 5.4892725e-01 4.4055367e+01 
-1.8652271e-02 6.8798620e-01 4.3834026e+01 
-7.9845116e-02 5.8636194e-01 4.3823372e+01 
8.7777540e-02 5.7885915e-01 4.4200001e+01 
5.3622175e-02 5.1732427e-01 4.4200001e+01 
-3.2639861e-01 9.2031354e-01 4.3529953e+01 
-3.9894739e-01 8.5844576e-01 4.3528313e+01 
-1.9876897e-01 8.4634024e-01 4.3565521e+01 
-1.0087753e-01 7.7184403e-01 4.3627972e+01 
-2.8357074e-01 7.2742778e-01 4.3545506e+01 
-1.8323407e-01 6.4902818e-01 4.3610458e+01 
-4.3632931e-01 9.6407109e-01 4.3467831e+01 
3.1033519e-03 6.6751039e-01 4.3691772e+01 
-5.3600248e-02 5.6906003e-01 4.3676846e+01 
1.2436585e-01 5.5082864e-01 4.3886215e+01 
1.7079005e-01 5.1095647e-01 4.4054855e+01 
1.4951277e-01 4.6697062e-01 4.4053665e+01 
1.0028158e-01 4.8915190e-01 4.3877911e+01 
-4.0513036e-01 8.6722642e-01 4.3405304e+01 
-3.2530096e-01 9.2064321e-01 4.3405800e+01 
-9.6616447e-02 7.7055699e-01 4.3495411e+01 
-8.4563000e-03 6.8258613e-01 4.3574005e+01 
-1.9579062e-01 8.4624058e-01 4.3431831e+01 
2.1753120e-01 4.7335833e-01 4.4200001e+01 
2.0360756e-01 4.4289169e-01 4.4200001e+01 
-1.8021962e-01 6.4559317e-01 4.3473904e+01 
-7.0636064e-02 5.7773441e-01 4.3555408e+01 
-2.8212959e-01 7.2517604e-01 4.3407806e+01 
-4.3632865e-01 9.6406716e-01 4.3343307e+01 
1.3810426e-01 5.4143524e-01 4.3628246e+01 
-3.2419339e-01 9.2096806e-01 4.3280907e+01 
-3.9903235e-01 8.5775709e-01 4.3279266e+01 
-9.2257597e-02 7.6921552e-01 4.3360443e+01 
1.1508528e-01 4.7804743e-01 4.3612068e+01 
-1.9276154e-01 8.4613472e-01 4.3295704e+01 
1.4013666e-02 6.6131532e-01 4.3426643e+01 
-1.7712323e-01 6.4207786e-01 4.3334946e+01 
-2.8066361e-01 7.2288430e-01 4.3267666e+01 
-4.3382257e-02 5.5983055e-01 4.3403778e+01 
-4.3632799e-01 9.6406323e-01 4.3218033e+01 
3.7877345e-01 3.8273901e-01 4.4200001e+01 
3.9076596e-01 3.7443376e-01 4.3993755e+01 
-3.2307580e-01 9.2128778e-01 4.3155251e+01 
-3.9906058e-01 8.5738426e-01 4.3153610e+01 
-8.7798268e-02 7.6781619e-01 4.3222996e+01 
1.9689407e-02 6.5803534e-01 4.3290459e+01 
-6.0862999e-02 5.6866169e-01 4.3278019e+01 
-1.8968078e-01 8.4602165e-01 4.3157055e+01 
-1.7394182e-01 6.3847917e-01 4.3193501e+01 
-4.3632734e-01 9.6405929e-01 4.3091995e+01 
4.0275589e-01 3.6612594e-01 4.3787510e+01 
1.2304078e-01 5.5709994e-01 4.3330139e+01 
-2.7917209e-01 7.2055119e-01 4.3125000e+01 
2.5336364e-01 4.4907436e-01 4.3468094e+01 
2.3670304e-01 4.1684708e-01 4.3469433e+01 
1.3086085e-01 4.6634668e-01 4.3336948e+01 
-3.8351217e-01 8.3473074e-01 4.3036392e+01 
-3.2194808e-01 9.2160189e-01 4.3028820e+01 
2.5518833e-02 6.5462554e-01 4.3151749e+01 
-8.3235659e-02 7.6635528e-01 4.3082981e+01 
4.1474071e-01 3.5781288e-01 4.3581264e+01 
-1.8654740e-01 8.4590012e-01 4.3015797e+01 
-3.2522827e-02 5.5011308e-01 4.3120937e+01 
-1.7067213e-01 6.3479382e-01 4.3049488e+01 
-4.3632668e-01 9.6405542e-01 4.2965172e+01 
-2.7765438e-01 7.1817529e-01 4.2979721e+01 
2.6620242e-01 4.4011977e-01 4.3261948e+01 
1.3584816e-02 6.7044950e-01 4.3025066e+01 
-3.2081014e-01 9.2191011e-01 4.2901604e+01 
-3.8160574e-01 8.3169121e-01 4.2902863e+01 
-7.8566879e-02 7.6482886e-01 4.2940315e+01 
-5.0480481e-02 5.5910730e-01 4.2990566e+01 
4.2671782e-01 3.4949207e-01 4.3375019e+01 
1.6821145e-01 5.2049083e-01 4.3083881e+01 
-1.8336046e-01 8.4576881e-01 4.2871841e+01 
-4.3632606e-01 9.6405160e-01 4.2837555e+01 
-1.6731077e-01 6.3101834e-01 4.2902817e+01 
1.4768846e-01 4.5400122e-01 4.3051926e+01 
-2.7610970e-01 7.1575516e-01 4.2831745e+01 
-3.1966189e-01 9.2221189e-01 4.2773579e+01 
-3.8560396e-01 8.3684862e-01 4.2767078e+01 
3.7660085e-02 6.4738947e-01 4.2866421e+01 
-7.3788933e-02 7.6323271e-01 4.2794899e+01 
4.3868470e-01 3.4116083e-01 4.3168777e+01 
-4.3632543e-01 9.6404779e-01 4.2709122e+01 
-2.0968946e-02 5.3986710e-01 4.2827656e+01 
-1.8011902e-01 8.4562629e-01 4.2725094e+01 
-1.6385415e-01 6.2714905e-01 4.2753403e+01 
-2.7453732e-01 7.1328926e-01 4.2680973e+01 
-3.1850323e-01 9.2250693e-01 4.2644733e+01 
-3.9907700e-01 8.5570478e-01 4.2643101e+01 
2.5504474e-02 6.6361672e-01 4.2734810e+01 
1.8471870e-01 5.0880390e-01 4.2796177e+01 
-6.8898737e-02 7.6156229e-01 4.2646645e+01 
-3.9438177e-02 5.4903054e-01 4.2692345e+01 
-4.3632481e-01 9.6404403e-01 4.2579861e+01 
4.5063871e-01 3.3281663e-01 4.2962532e+01 
1.6565691e-01 4.4095638e-01 4.2756321e+01 
-1.7682223e-01 8.4547096e-01 4.2575459e+01 
-1.6029853e-01 6.2318206e-01 4.2601143e+01 
-4.0415615e-01 8.6278629e-01 4.2516582e+01 
-3.1733403e-01 9.2279470e-01 4.2515053e+01 
-2.7293649e-01 7.1077597e-01 4.2527313e+01 
5.0482783e-02 6.3954860e-01 4.2569923e+01 
-4.3632418e-01 9.6404034e-01 4.2449757e+01 
-6.3893095e-02 7.5981271e-01 4.2495445e+01 
-8.6617703e-03 5.2904755e-01 4.2523201e+01 
-1.7346917e-01 8.4530097e-01 4.2422829e+01 
-1.5663996e-01 6.1911333e-01 4.2445942e+01 
3.0435190e-01 4.1341871e-01 4.2643494e+01 
4.6257737e-01 3.2445681e-01 4.2756287e+01 
-3.1615424e-01 9.2307472e-01 4.2384518e+01 
-3.9902648e-01 8.5475212e-01 4.2382885e+01 
-2.7130640e-01 7.0821363e-01 4.2370659e+01 
3.8079392e-02 6.5619886e-01 4.2433029e+01 
2.0230262e-01 4.9620378e-01 4.2497147e+01 
-4.3632355e-01 9.6403670e-01 4.2318787e+01 
-5.8768708e-02 7.5797862e-01 4.2341198e+01 
-2.7680276e-02 5.3838593e-01 4.2382599e+01 
1.8486446e-01 4.2715022e-01 4.2449394e+01 
-3.8436696e-01 8.3356136e-01 4.2264896e+01 
8.9545198e-02 5.3233254e-01 4.2382050e+01 
-3.3225983e-01 9.3122375e-01 4.2255634e+01 
-1.7005907e-01 8.4511453e-01 4.2267101e+01 
-1.5287429e-01 6.1493850e-01 4.2287693e+01 
4.7449806e-01 3.1607881e-01 4.2550037e+01 
-2.6964626e-01 7.0560038e-01 4.2210907e+01 
-4.3632296e-01 9.6403313e-01 4.2186939e+01 
6.4036883e-02 6.3103610e-01 4.2261456e+01 
-5.3522192e-02 7.5605446e-01 4.2183796e+01 
-3.7873057e-01 8.2541841e-01 4.2124020e+01 
-3.1376252e-01 9.2360973e-01 4.2120819e+01 
4.4639236e-03 5.1760370e-01 4.2206776e+01 
-1.6659111e-01 8.4490943e-01 4.2108162e+01 
-1.4899719e-01 6.1065292e-01 4.2126286e+01 
-4.3632239e-01 9.6402961e-01 4.2054195e+01 
4.8639825e-01 3.0768004e-01 4.2343792e+01 
-2.6795524e-01 7.0293444e-01 4.2047943e+01 
2.4746621e-01 4.6040925e-01 4.2191032e+01 
7.1105182e-02 6.2650448e-01 4.2102463e+01 
-3.1255043e-01 9.2386365e-01 4.1987617e+01 
-4.8150036e-02 7.5403398e-01 4.2023121e+01 
-1.5144684e-02 5.2712250e-01 4.2060505e+01 
-3.7995064e-01 8.2661813e-01 4.1980038e+01 
2.0541981e-01 4.1251117e-01 4.2130333e+01 
-1.6306458e-01 8.4468329e-01 4.1945896e+01 
-4.3632182e-01 9.6402621e-01 4.1920536e+01 
-1.4500406e-01 6.0625184e-01 4.1961609e+01 
1.3375351e-01 5.6370503e-01 4.1969833e+01 
-2.6623246e-01 7.0021385e-01 4.1881653e+01 
-3.1132740e-01 9.2410773e-01 4.1853493e+01 
-3.9880505e-01 8.5261923e-01 4.1851868e+01 
4.9827534e-01 2.9925787e-01 4.2137547e+01 
3.4194937e-01 3.8685825e-01 4.2025021e+01 
-4.2648647e-02 7.5191063e-01 4.1859051e+01 
-2.5401810e-01 7.9503769e-01 4.1808533e+01 
1.8480448e-02 5.0547802e-01 4.1877510e+01 
-4.3632126e-01 9.6402287e-01 4.1785946e+01 
-1.5947884e-01 8.4443361e-01 4.1780174e+01 
-1.4089009e-01 6.0172999e-01 4.1793541e+01 
-3.1009343e-01 9.2434150e-01 4.1718426e+01 
-4.0306881e-01 8.5845691e-01 4.1716179e+01 
8.5861288e-02 6.1683756e-01 4.1774368e+01 
-2.6447710e-01 6.9743657e-01 4.1711910e+01 
3.0427080e-01 4.1638452e-01 4.1839512e+01 
2.6751360e-01 3.7833902e-01 4.1830902e+01 
5.1012677e-01 2.9080975e-01 4.1931297e+01 
-3.7014309e-02 7.4967718e-01 4.1691463e+01 
-4.3632072e-01 9.6401966e-01 4.1650398e+01 
2.5847588e-02 4.9913955e-01 4.1707767e+01 
-1.5583332e-01 8.4415752e-01 4.1610870e+01 
-3.8322043e-01 8.2981020e-01 4.1595791e+01 
-3.0884841e-01 9.2456430e-01 4.1582397e+01 
-1.3665022e-01 5.9708190e-01 4.1621960e+01 
9.3565010e-02 6.1167872e-01 4.1605015e+01 
-2.6268822e-01 6.9460052e-01 4.1538593e+01 
-4.3632022e-01 9.6401656e-01 4.1513885e+01 
-3.1243213e-02 7.4732590e-01 4.1520226e+01 
2.7603787e-01 3.7115356e-01 4.1624012e+01 
2.8505871e-01 4.3281260e-01 4.1611507e+01 
5.2195001e-01 2.8233302e-01 4.1725052e+01 
3.3468332e-02 4.9260557e-01 4.1534447e+01 
-3.9853087e-01 8.5081697e-01 4.1443768e+01 
-3.2560509e-01 9.3245691e-01 4.1443577e+01 
-1.5212752e-01 8.4385180e-01 4.1437847e+01 
-1.3227913e-01 5.9230179e-01 4.1446728e+01 
-4.3631971e-01 9.6401358e-01 4.1376381e+01 
[...]
POINT_DATA 6166
FIELD FieldData 5
DISPLACEMENT 3 6166  float
7.3975998e-01 6.7509496e-01 -1.9277826e-02 
7.3522985e-01 6.7054677e-01 -1.9106258e-02 
7.3964745e-01 6.7489862e-01 -2.1654550e-02 
7.3964959e-01 6.7508036e-01 -1.6523156e-02 
7.3285836e-01 6.6808647e-01 -2.1284217e-02 
7.3303455e-01 6.6844016e-01 -1.6240150e-02 
7.3067456e-01 6.6597337e-01 -1.8933706e-02 
7.3953062e-01 6.7472565e-01 -2.3237653e-02 
7.3951983e-01 6.7496085e-01 -1.6211327e-02 
7.3491228e-01 6.7008543e-01 -2.3162838e-02 
7.3475087e-01 6.7017382e-01 -1.6002463e-02 
7.2828984e-01 6.6349792e-01 -2.1164196e-02 
7.2796547e-01 6.6335011e-01 -1.6069222e-02 
7.3021573e-01 6.6536665e-01 -2.3086682e-02 
7.2609365e-01 6.6137427e-01 -1.8760160e-02 
7.3941910e-01 6.7458177e-01 -2.4144614e-02 
7.2990352e-01 6.6530818e-01 -1.5790200e-02 
7.3940510e-01 6.7481893e-01 -1.6969843e-02 
7.3233837e-01 6.6746765e-01 -2.4022346e-02 
7.3211437e-01 6.6750091e-01 -1.6643934e-02 
7.2369546e-01 6.5888345e-01 -2.1043357e-02 
7.2330344e-01 6.5866905e-01 -1.5904104e-02 
7.2543848e-01 6.6056681e-01 -2.3009084e-02 
7.2497535e-01 6.6036141e-01 -1.5574479e-02 
7.2148669e-01 6.5674901e-01 -1.8585619e-02 
7.2759795e-01 6.6270471e-01 -2.3949578e-02 
7.3929518e-01 6.7445362e-01 -2.4244120e-02 
7.2722363e-01 6.6259128e-01 -1.6442286e-02 
7.3928016e-01 6.7463750e-01 -1.8564757e-02 
7.1907485e-01 6.5424269e-01 -2.0921651e-02 
7.1902674e-01 6.5436918e-01 -1.5917709e-02 
7.2057790e-01 6.5568340e-01 -2.2929922e-02 
7.2978240e-01 6.6489726e-01 -2.4044378e-02 
7.2277552e-01 6.5785939e-01 -2.3875313e-02 
7.1996391e-01 6.5533108e-01 -1.5355244e-02 
7.2950059e-01 6.6481465e-01 -1.8318079e-02 
7.3382074e-01 6.6895652e-01 -2.4059780e-02 
7.2225076e-01 6.5759921e-01 -1.6237730e-02 
7.1685326e-01 6.5209723e-01 -1.8410103e-02 
7.3376042e-01 6.6905946e-01 -1.9393325e-02 
7.2551733e-01 6.6061080e-01 -2.4011072e-02 
7.2509789e-01 6.6040504e-01 -1.7848630e-02 
7.3915511e-01 6.7430717e-01 -2.4403995e-02 
7.3914200e-01 6.7442065e-01 -2.0790512e-02 
7.1442753e-01 6.4957529e-01 -2.0799162e-02 
7.1437985e-01 6.4970446e-01 -1.5728015e-02 
7.1563154e-01 6.5071386e-01 -2.2849083e-02 
7.1786845e-01 6.5292907e-01 -2.3799406e-02 
7.1486652e-01 6.5021449e-01 -1.5132312e-02 
7.1719313e-01 6.5252221e-01 -1.6030051e-02 
7.1219289e-01 6.4741874e-01 -1.8233426e-02 
7.2013360e-01 6.5520424e-01 -2.3851279e-02 
7.1955204e-01 6.5482563e-01 -1.7972013e-02 
7.2729760e-01 6.6239125e-01 -2.4271619e-02 
7.3359007e-01 6.6870040e-01 -2.4748370e-02 
7.3353368e-01 6.6873020e-01 -2.2281691e-02 
7.2696465e-01 6.6217053e-01 -2.1019747e-02 
7.0975900e-01 6.4506197e-01 -1.5652830e-02 
7.0975310e-01 6.4488077e-01 -2.0675564e-02 
7.1287411e-01 6.4791125e-01 -2.3721702e-02 
7.1571726e-01 6.5076572e-01 -2.3819277e-02 
7.1059668e-01 6.4565551e-01 -2.2766432e-02 
7.3899907e-01 6.7411923e-01 -2.5289584e-02 
7.3899043e-01 6.7416936e-01 -2.3612816e-02 
7.1204823e-01 6.4735758e-01 -1.5819447e-02 
7.1499765e-01 6.5026426e-01 -1.7487116e-02 
7.0968062e-01 6.4500928e-01 -1.4905893e-02 
7.0750552e-01 6.4271289e-01 -1.8055901e-02 
7.1756959e-01 6.5261900e-01 -2.4064971e-02 
7.0505142e-01 6.4015919e-01 -2.0551385e-02 
7.0500481e-01 6.4029372e-01 -1.5344772e-02 
7.0778984e-01 6.4280319e-01 -2.3642043e-02 
7.1693832e-01 6.5209973e-01 -2.0777574e-02 
7.0547050e-01 6.4050585e-01 -2.2681756e-02 
7.1014100e-01 6.4516622e-01 -2.3648875e-02 
7.0681334e-01 6.4210278e-01 -1.5605772e-02 
7.0440334e-01 6.3971245e-01 -1.4675398e-02 
7.0925933e-01 6.4449131e-01 -1.7618794e-02 
7.0279032e-01 6.3797963e-01 -1.7877178e-02 
7.3882973e-01 6.7385668e-01 -2.7922412e-02 
7.3105079e-01 6.6604173e-01 -2.7765060e-02 
7.0032173e-01 6.3540936e-01 -2.0426139e-02 
7.0027584e-01 6.3554692e-01 -1.5151207e-02 
7.0261270e-01 6.3760233e-01 -2.3560267e-02 
7.0500910e-01 6.4001125e-01 -2.3543654e-02 
7.0454401e-01 6.3976902e-01 -1.7117603e-02 
7.0025009e-01 6.3526189e-01 -2.2594845e-02 
7.0148581e-01 6.3675523e-01 -1.5388948e-02 
6.9804698e-01 6.3321829e-01 -1.7697429e-02 
7.2327185e-01 6.5822709e-01 -2.7607435e-02 
7.0636779e-01 6.4137256e-01 -2.3666076e-02 
6.9903213e-01 6.3432175e-01 -1.4441219e-02 
7.1140271e-01 6.4639843e-01 -2.4674531e-02 
7.1144539e-01 6.4650583e-01 -2.2830689e-02 
7.0656335e-01 6.4167887e-01 -2.0536290e-02 
6.9584042e-01 6.3110417e-01 -1.4712673e-02 
6.9556379e-01 6.3063180e-01 -2.0299565e-02 
6.9978297e-01 6.3476229e-01 -2.3435775e-02 
6.9733989e-01 6.3230574e-01 -2.3476325e-02 
7.1549368e-01 6.5041351e-01 -2.7449271e-02 
6.9493276e-01 6.2992084e-01 -2.2506192e-02 
6.9860119e-01 6.3379103e-01 -1.7258544e-02 
6.9606233e-01 6.3131195e-01 -1.5168536e-02 
6.9327539e-01 6.2842882e-01 -1.7516499e-02 
6.9356376e-01 6.2883377e-01 -1.4203060e-02 
7.0362926e-01 6.3858986e-01 -2.4523770e-02 
6.9503474e-01 6.2999105e-01 -2.3404965e-02 
6.9077712e-01 6.2582600e-01 -2.0172270e-02 
6.9081372e-01 6.2606031e-01 -1.4479967e-02 
6.9196832e-01 6.2691039e-01 -2.3389887e-02 
6.9371480e-01 6.2889791e-01 -1.6739609e-02 
7.0771736e-01 6.4260203e-01 -2.7289810e-02 
6.9704664e-01 6.3200510e-01 -2.3627905e-02 
6.8951517e-01 6.2447959e-01 -2.2414887e-02 
6.8847442e-01 6.2361050e-01 -1.7334305e-02 
6.9054043e-01 6.2577003e-01 -1.4945352e-02 
6.9581866e-01 6.3088763e-01 -2.0297473e-02 
6.8799514e-01 6.2324607e-01 -1.3960972e-02 
6.8596113e-01 6.2099111e-01 -2.0043664e-02 
6.8571287e-01 6.2093914e-01 -1.4332836e-02 
6.8903607e-01 6.2396961e-01 -2.3210889e-02 
6.8649495e-01 6.2141329e-01 -2.3300840e-02 
6.9994128e-01 6.3479125e-01 -2.7129954e-02 
6.8364435e-01 6.1876357e-01 -1.7151339e-02 
6.8755442e-01 6.2270200e-01 -1.6890598e-02 
6.8399429e-01 6.1893541e-01 -2.2320846e-02 
6.8491638e-01 6.2012666e-01 -1.4718276e-02 
6.8232375e-01 6.1755562e-01 -1.3715203e-02 
6.8111616e-01 6.1612755e-01 -1.9913737e-02 
6.8107277e-01 6.1627561e-01 -1.4364329e-02 
6.8410569e-01 6.1901617e-01 -2.3179462e-02 
6.8620604e-01 6.2111884e-01 -2.3396337e-02 
6.8091661e-01 6.1581159e-01 -2.3208540e-02 
6.8248588e-01 6.1762756e-01 -1.6352750e-02 
6.7878544e-01 6.1388785e-01 -1.6967738e-02 
6.9216883e-01 6.2698573e-01 -2.6969161e-02 
6.8468016e-01 6.1970204e-01 -2.0060653e-02 
6.7836726e-01 6.1328560e-01 -2.2223929e-02 
6.7918831e-01 6.1437893e-01 -1.4488785e-02 
6.7632526e-01 6.1150974e-01 -1.4262835e-02 
6.7624193e-01 6.1123586e-01 -1.9783495e-02 
6.7654651e-01 6.1175931e-01 -1.3464688e-02 
6.7787629e-01 6.1276472e-01 -2.2971937e-02 
6.7389655e-01 6.0898292e-01 -1.6782500e-02 
6.7523098e-01 6.1010319e-01 -2.3113191e-02 
6.7609596e-01 6.1120230e-01 -1.6516032e-02 
6.7263043e-01 6.0752630e-01 -2.2124071e-02 
6.7335320e-01 6.0852462e-01 -1.4254647e-02 
6.8032557e-01 6.1518717e-01 -2.4065807e-02 
6.8440038e-01 6.1918581e-01 -2.6807258e-02 
6.7133743e-01 6.0631305e-01 -1.9652024e-02 
6.7129534e-01 6.0646641e-01 -1.3964342e-02 
6.7065966e-01 6.0585439e-01 -1.3209747e-02 
6.7275286e-01 6.0761929e-01 -2.2940163e-02 
6.7494798e-01 6.0981661e-01 -2.3154447e-02 
6.6897768e-01 6.0404807e-01 -1.6596781e-02 
6.6943282e-01 6.0428268e-01 -2.3015197e-02 
6.7083424e-01 6.0593599e-01 -1.5957836e-02 
6.7312497e-01 6.0810161e-01 -1.9826861e-02 
6.6684246e-01 6.0200775e-01 -1.3550029e-02 
6.7072701e-01 6.0568255e-01 -2.0124650e-02 
6.6651469e-01 6.0148561e-01 -1.9171001e-02 
6.6678047e-01 6.0165411e-01 -2.2021120e-02 
6.6740531e-01 6.0255873e-01 -1.4018153e-02 
6.7663538e-01 6.1138928e-01 -2.6643226e-02 
6.6465980e-01 5.9983742e-01 -1.2951415e-02 
6.6402906e-01 5.9908468e-01 -1.6409894e-02 
6.6627640e-01 6.0112202e-01 -2.2718647e-02 
6.6351998e-01 5.9834749e-01 -2.2913298e-02 
6.6154695e-01 5.9670037e-01 -1.3257014e-02 
6.6143870e-01 5.9638059e-01 -1.9384207e-02 
6.6419774e-01 5.9926474e-01 -1.6133770e-02 
6.6081417e-01 5.9566623e-01 -2.1915596e-02 
6.6134238e-01 5.9647864e-01 -1.3776954e-02 
6.5904981e-01 5.9409082e-01 -1.6221428e-02 
6.6887510e-01 6.0360032e-01 -2.6477903e-02 
6.5854359e-01 5.9370464e-01 -1.2688279e-02 
6.6340083e-01 5.9822226e-01 -2.3062665e-02 
6.6030377e-01 5.9512794e-01 -2.2586163e-02 
6.5644276e-01 5.9136993e-01 -1.9249003e-02 
6.5748823e-01 5.9229451e-01 -2.2806993e-02 
6.5873021e-01 5.9379452e-01 -1.5554385e-02 
6.5614855e-01 5.9128720e-01 -1.3055247e-02 
6.6112423e-01 5.9605646e-01 -1.9596171e-02 
6.5472740e-01 5.8955860e-01 -2.1805599e-02 
6.5403819e-01 5.8906645e-01 -1.6031481e-02 
6.5516198e-01 5.9028214e-01 -1.3533804e-02 
6.5524846e-01 5.9006011e-01 -2.2377951e-02 
6.5230805e-01 5.8745438e-01 -1.2421547e-02 
6.5141571e-01 5.8632863e-01 -1.9111523e-02 
6.5137494e-01 5.8649158e-01 -1.3150185e-02 
6.6112351e-01 5.9582269e-01 -2.6310973e-02 
6.5706450e-01 5.9184110e-01 -2.3593074e-02 
6.5133518e-01 5.8612132e-01 -2.2696270e-02 
6.4961660e-01 5.8461785e-01 -1.6340241e-02 
6.5183407e-01 5.8686519e-01 -1.5744915e-02 
6.4899689e-01 5.8401382e-01 -1.5840720e-02 
6.4851809e-01 5.8333093e-01 -2.1689363e-02 
6.4886147e-01 5.8396637e-01 -1.3288779e-02 
6.4635807e-01 5.8125830e-01 -1.8973086e-02 
6.4630210e-01 5.8140612e-01 -1.3023013e-02 
6.4799285e-01 5.8277941e-01 -2.2303412e-02 
6.4595020e-01 5.8108383e-01 -1.2151496e-02 
6.5015572e-01 5.8492494e-01 -2.3031700e-02 
6.4983582e-01 5.8470213e-01 -2.0215014e-02 
6.5337545e-01 5.8804798e-01 -2.6140708e-02 
6.4505839e-01 5.7982582e-01 -2.2580463e-02 
6.4392495e-01 5.7893169e-01 -1.5650813e-02 
6.4547104e-01 5.8048683e-01 -1.5550061e-02 
6.4218318e-01 5.7697839e-01 -2.1569649e-02 
6.4176881e-01 5.7687527e-01 -1.2525357e-02 
6.4127183e-01 5.7616073e-01 -1.8832091e-02 
6.4243573e-01 5.7752901e-01 -1.3037623e-02 
6.4165109e-01 5.7642084e-01 -2.2156786e-02 
6.3946837e-01 5.7459056e-01 -1.1876372e-02 
6.3882548e-01 5.7382154e-01 -1.5459589e-02 
6.3865191e-01 5.7340372e-01 -2.2459803e-02 
6.4208460e-01 5.7693285e-01 -1.9974377e-02 
6.4164829e-01 5.7640272e-01 -2.2606345e-02 
6.4563918e-01 5.8028960e-01 -2.5968097e-02 
6.3898164e-01 5.7398438e-01 -1.5352258e-02 
6.3611609e-01 5.7120341e-01 -1.2531778e-02 
6.3610512e-01 5.7099485e-01 -1.8305693e-02 
6.3571686e-01 5.7049823e-01 -2.1446815e-02 
6.3588375e-01 5.7096678e-01 -1.2785277e-02 
6.3369256e-01 5.6868064e-01 -1.5265720e-02 
6.3608420e-01 5.7084519e-01 -2.1941485e-02 
6.3285655e-01 5.6797010e-01 -1.1598147e-02 
6.3211417e-01 5.6685221e-01 -2.2334419e-02 
6.3100630e-01 5.6587571e-01 -1.8549500e-02 
6.3096523e-01 5.6604773e-01 -1.2323043e-02 
6.3236344e-01 5.6735545e-01 -1.5153761e-02 
6.3470620e-01 5.6953245e-01 -1.9993860e-02 
6.3791549e-01 5.7254714e-01 -2.5794163e-02 
6.2911820e-01 5.6388670e-01 -2.1318762e-02 
6.3352710e-01 5.6825799e-01 -2.2624377e-02 
6.2852770e-01 5.6351125e-01 -1.5068892e-02 
6.2920046e-01 5.6427598e-01 -1.2529483e-02 
6.2925202e-01 5.6400234e-01 -2.1762865e-02 
6.2582457e-01 5.6068856e-01 -1.8404827e-02 
6.2578392e-01 5.6086469e-01 -1.2113176e-02 
6.2611204e-01 5.6122023e-01 -1.1314767e-02 
6.2544012e-01 5.6016713e-01 -2.2204194e-02 
6.2561220e-01 5.6059659e-01 -1.4953845e-02 
6.2333143e-01 5.5831307e-01 -1.4873431e-02 
6.2732875e-01 5.6215417e-01 -1.9534430e-02 
6.3020569e-01 5.6482220e-01 -2.5616908e-02 
6.2238044e-01 5.5713975e-01 -2.1185821e-02 
6.2238139e-01 5.5745304e-01 -1.2270105e-02 
6.2603760e-01 5.6075537e-01 -2.2513732e-02 
6.2061203e-01 5.5547130e-01 -1.8258395e-02 
6.2057251e-01 5.5565113e-01 -1.1902777e-02 
6.2215239e-01 5.5689466e-01 -2.1590825e-02 
6.1922944e-01 5.5433685e-01 -1.1026997e-02 
6.1810446e-01 5.5308354e-01 -1.4678475e-02 
6.1862439e-01 5.5334473e-01 -2.2068392e-02 
6.1872280e-01 5.5370289e-01 -1.4752484e-02 
6.1536944e-01 5.5022645e-01 -1.8111289e-02 
6.1532915e-01 5.5040610e-01 -1.1689809e-02 
6.1549896e-01 5.5025393e-01 -2.1048767e-02 
6.2251073e-01 5.5711627e-01 -2.5436336e-02 
6.1542213e-01 5.5049425e-01 -1.2007368e-02 
6.1862081e-01 5.5344808e-01 -1.9038159e-02 
6.1860865e-01 5.5331594e-01 -2.2415042e-02 
6.1284465e-01 5.4782444e-01 -1.4479315e-02 
6.1494005e-01 5.4967791e-01 -2.1413164e-02 
6.1220479e-01 5.4731572e-01 -1.0736312e-02 
6.1166424e-01 5.4638153e-01 -2.1925295e-02 
6.1273420e-01 5.4769623e-01 -1.5069814e-02 
6.1009085e-01 5.4494905e-01 -1.7962722e-02 
6.1005354e-01 5.4513550e-01 -1.1480929e-02 
6.0847110e-01 5.4322553e-01 -2.0904055e-02 
6.1483020e-01 5.4942793e-01 -2.5259120e-02 
6.0755348e-01 5.4253882e-01 -1.4285175e-02 
6.0832083e-01 5.4339695e-01 -1.1741281e-02 
6.1108118e-01 5.4578590e-01 -2.2216985e-02 
6.1025083e-01 5.4505539e-01 -1.9391218e-02 
6.0771632e-01 5.4245353e-01 -2.1235539e-02 
6.0478395e-01 5.3964627e-01 -1.7815912e-02 
6.0474402e-01 5.3983337e-01 -1.1269673e-02 
6.0503733e-01 5.4015505e-01 -1.0438441e-02 
6.0455579e-01 5.3927463e-01 -2.1775432e-02 
6.0555202e-01 5.4050541e-01 -1.5193457e-02 
6.0222846e-01 5.3721994e-01 -1.4087846e-02 
6.0129613e-01 5.3605288e-01 -2.0753264e-02 
6.0110575e-01 5.3607500e-01 -1.4704455e-02 
6.0716701e-01 5.4176468e-01 -2.5077214e-02 
6.0107273e-01 5.3615755e-01 -1.1471946e-02 
6.0364622e-01 5.3835601e-01 -2.1909636e-02 
5.9944338e-01 5.3431159e-01 -1.7661398e-02 
5.9940213e-01 5.3449774e-01 -1.1055491e-02 
6.0043299e-01 5.3517437e-01 -2.1065259e-02 
6.0263550e-01 5.3743345e-01 -1.9445632e-02 
5.9771955e-01 5.3284931e-01 -1.0139206e-02 
5.9687233e-01 5.3187138e-01 -1.3885653e-02 
5.9729367e-01 5.3201872e-01 -2.1620072e-02 
5.9811759e-01 5.3307909e-01 -1.5027111e-02 
5.9406847e-01 5.2894443e-01 -1.7510239e-02 
5.9403175e-01 5.2913761e-01 -1.0842889e-02 
5.9395874e-01 5.2872699e-01 -2.0594528e-02 
5.9951657e-01 5.3411716e-01 -2.4893634e-02 
5.9367228e-01 5.2877122e-01 -1.1200153e-02 
5.9616685e-01 5.3088361e-01 -2.1707302e-02 
5.9148264e-01 5.2649391e-01 -1.3687448e-02 
5.9304631e-01 5.2779865e-01 -2.0884775e-02 
5.9516925e-01 5.2996373e-01 -1.9594813e-02 
5.9013164e-01 5.2506405e-01 -1.6072428e-02 
5.9024698e-01 5.2539581e-01 -9.8314993e-03 
5.8987188e-01 5.2460974e-01 -2.1456068e-02 
5.8866227e-01 5.2355295e-01 -1.7358007e-02 
5.9043849e-01 5.2540851e-01 -1.5004867e-02 
5.8794320e-01 5.2307534e-01 -1.0333556e-02 
5.8646429e-01 5.2124804e-01 -2.0431625e-02 
5.8605748e-01 5.2108604e-01 -1.3485970e-02 
5.9189045e-01 5.2650267e-01 -2.4705369e-02 
5.8611983e-01 5.2122629e-01 -1.1319288e-02 
5.8844471e-01 5.2318186e-01 -2.1415541e-02 
5.8581620e-01 5.2058160e-01 -2.0750856e-02 
5.8794194e-01 5.2272731e-01 -2.0108473e-02 
5.8323926e-01 5.1814681e-01 -1.7179815e-02 
5.8320159e-01 5.1834077e-01 -1.0421870e-02 
5.8261657e-01 5.1778901e-01 -9.5215328e-03 
5.8232391e-01 5.1708233e-01 -2.1283252e-02 
5.8063877e-01 5.1568460e-01 -1.3286945e-02 
5.8128941e-01 5.1628178e-01 -1.4833877e-02 
5.7886618e-01 5.1367396e-01 -2.0263264e-02 
5.8429271e-01 5.1892418e-01 -2.4511511e-02 
5.7783926e-01 5.1276362e-01 -1.6986392e-02 
5.7780498e-01 5.1296097e-01 -1.0226556e-02 
5.7850760e-01 5.1365507e-01 -1.0587936e-02 
5.8035469e-01 5.1516122e-01 -1.9922903e-02 
5.7918876e-01 5.1395178e-01 -2.1215688e-02 
5.7691574e-01 5.1171207e-01 -2.0516604e-02 
5.7525712e-01 5.1032114e-01 -1.3091757e-02 
5.7502192e-01 5.1022261e-01 -9.2100324e-03 
5.7479513e-01 5.0957823e-01 -2.1117007e-02 
5.7425755e-01 5.0932437e-01 -1.3257576e-02 
5.7247996e-01 5.0742561e-01 -1.6790936e-02 
5.7211423e-01 5.0730145e-01 -9.7156409e-03 
5.7139432e-01 5.0622684e-01 -2.0094823e-02 
5.7671314e-01 5.1137012e-01 -2.4316980e-02 
5.7097119e-01 5.0615305e-01 -1.0244270e-02 
5.6991303e-01 5.0500005e-01 -1.2894569e-02 
5.7057035e-01 5.0538713e-01 -2.0403400e-02 
5.7220471e-01 5.0711203e-01 -1.7796464e-02 
5.7277638e-01 5.0754225e-01 -2.1699732e-02 
5.6987560e-01 5.0469536e-01 -2.0376688e-02 
5.6754136e-01 5.0277597e-01 -8.9106690e-03 
5.6715381e-01 5.0212425e-01 -1.6594637e-02 
5.6712186e-01 5.0232232e-01 -9.8429136e-03 
5.6739140e-01 5.0219971e-01 -2.0946519e-02 
5.6678653e-01 5.0189209e-01 -1.2840874e-02 
5.6460834e-01 4.9972212e-01 -1.2701851e-02 
5.6404692e-01 4.9890867e-01 -1.9920833e-02 
5.6915641e-01 5.0384420e-01 -2.4129765e-02 
5.6355244e-01 4.9877268e-01 -9.9109998e-03 
5.6239885e-01 4.9763802e-01 -9.2794681e-03 
5.6187338e-01 4.9687117e-01 -1.6396934e-02 
5.6323719e-01 4.9808183e-01 -2.0241069e-02 
5.6523085e-01 5.0002688e-01 -2.1512019e-02 
5.6523371e-01 5.0009912e-01 -1.9548584e-02 
5.6017756e-01 4.9545014e-01 -8.6176936e-03 
5.6251335e-01 4.9751204e-01 -1.6088560e-02 
5.6010962e-01 4.9495202e-01 -2.0774098e-02 
5.5934685e-01 4.9448618e-01 -1.2508529e-02 
5.6128788e-01 4.9614283e-01 -2.0150416e-02 
5.5943382e-01 4.9458307e-01 -1.2436328e-02 
5.5662876e-01 4.9165270e-01 -1.6202867e-02 
5.5681920e-01 4.9171880e-01 -1.9749919e-02 
5.6161004e-01 4.9632856e-01 -2.3926815e-02 
5.5624932e-01 4.9151331e-01 -9.5867775e-03 
5.5559003e-01 4.9086910e-01 -8.9531234e-03 
5.5602640e-01 4.9090874e-01 -2.0079223e-02 
5.5411625e-01 4.8928931e-01 -1.2319694e-02 
5.5769992e-01 4.9252605e-01 -2.1321915e-02 
5.5770040e-01 4.9259648e-01 -1.9360594e-02 
5.5292654e-01 4.8824593e-01 -8.3309794e-03 
5.5294871e-01 4.8783228e-01 -2.0600690e-02 
5.5141950e-01 4.8647964e-01 -1.6005017e-02 
5.5139023e-01 4.8667797e-01 -9.2842737e-03 
5.5378312e-01 4.8885119e-01 -1.5285471e-02 
5.5378193e-01 4.8867765e-01 -1.9942595e-02 
5.5219603e-01 4.8739600e-01 -1.2044367e-02 
5.5016118e-01 4.8535982e-01 -1.2184555e-02 
5.4971468e-01 4.8465863e-01 -1.9575920e-02 
5.4892844e-01 4.8413500e-01 -1.2133373e-02 
5.5409062e-01 4.8884478e-01 -2.3723334e-02 
5.4859674e-01 4.8393923e-01 -8.2758060e-03 
5.4906189e-01 4.8437449e-01 -9.2731565e-03 
5.4893786e-01 4.8386300e-01 -1.9917194e-02 
5.5020142e-01 4.8507273e-01 -2.1127179e-02 
5.5019885e-01 4.8514161e-01 -1.9170962e-02 
5.4625410e-01 4.8135394e-01 -1.5808141e-02 
5.4621905e-01 4.8154521e-01 -9.1049708e-03 
5.4592830e-01 4.8109576e-01 -1.3794569e-02 
5.4578650e-01 4.8115790e-01 -8.0563026e-03 
5.4589999e-01 4.8103532e-01 -1.4744438e-02 
5.4591340e-01 4.8084167e-01 -2.0422321e-02 
5.4630315e-01 4.8142472e-01 -1.5110683e-02 
5.4630762e-01 4.8125455e-01 -1.9732177e-02 
5.4507643e-01 4.8033172e-01 -1.1669796e-02 
5.4378200e-01 4.7902873e-01 -1.1943548e-02 
5.4344958e-01 4.7883230e-01 -8.0998112e-03 
5.4272932e-01 4.7772369e-01 -1.9392569e-02 
5.4163438e-01 4.7698861e-01 -9.1940491e-03 
5.4198205e-01 4.7735351e-01 -8.9653479e-03 
5.4660338e-01 4.8140717e-01 -2.3516268e-02 
5.4144561e-01 4.7670934e-01 -1.1910701e-02 
5.4112846e-01 4.7626707e-01 -1.5610229e-02 
5.4197389e-01 4.7695059e-01 -1.9760869e-02 
5.4273462e-01 4.7766283e-01 -2.0930199e-02 
5.4272962e-01 4.7773004e-01 -1.8979065e-02 
5.3867805e-01 4.7396713e-01 -1.1763005e-02 
5.3876370e-01 4.7419539e-01 -7.7862479e-03 
5.3898650e-01 4.7397134e-01 -2.0242983e-02 
5.3806543e-01 4.7338513e-01 -1.1290719e-02 
5.3885478e-01 4.7403172e-01 -1.4942833e-02 
5.3886360e-01 4.7386909e-01 -1.9526867e-02 
5.3604645e-01 4.7122958e-01 -1.5417854e-02 
5.3616041e-01 4.7146288e-01 -1.2012214e-02 
5.3601092e-01 4.7142455e-01 -8.7566199e-03 
5.3585923e-01 4.7090852e-01 -1.9217063e-02 
5.3501540e-01 4.7044721e-01 -8.6674597e-03 
5.3915012e-01 4.7401208e-01 -2.3304606e-02 
5.3512132e-01 4.7015306e-01 -1.9595800e-02 
5.3361213e-01 4.6894839e-01 -1.1578296e-02 
5.3328294e-01 4.6875480e-01 -7.7390275e-03 
5.3206718e-01 4.6730632e-01 -1.4647330e-02 
5.3218472e-01 4.6722621e-01 -2.0063560e-02 
5.3184587e-01 4.6734074e-01 -7.5248592e-03 
5.3530204e-01 4.7029060e-01 -2.0729685e-02 
5.3529477e-01 4.7035557e-01 -1.8783316e-02 
5.3131515e-01 4.6666193e-01 -1.1822592e-02 
5.3119403e-01 4.6647257e-01 -1.3847252e-02 
5.3099763e-01 4.6623060e-01 -1.5224357e-02 
5.3096497e-01 4.6642831e-01 -8.5826153e-03 
5.3116083e-01 4.6655032e-01 -1.0929568e-02 
5.3143442e-01 4.6667930e-01 -1.4765110e-02 
5.3144717e-01 4.6652022e-01 -1.9315133e-02 
5.2910662e-01 4.6421808e-01 -1.9036112e-02 
5.2858359e-01 4.6397284e-01 -1.1398978e-02 
5.2825767e-01 4.6378237e-01 -7.5667365e-03 
5.2816427e-01 4.6366912e-01 -8.3806068e-03 
5.2837950e-01 4.6347222e-01 -1.9441018e-02 
5.3172767e-01 4.6665382e-01 -2.3089312e-02 
5.2598864e-01 4.6127480e-01 -1.5032465e-02 
5.2596056e-01 4.6147570e-01 -8.4113628e-03 
5.2550411e-01 4.6085262e-01 -1.3285825e-02 
5.2549392e-01 4.6060202e-01 -1.9883892e-02 
5.2503622e-01 4.6060362e-01 -7.2624092e-03 
5.2789581e-01 4.6295276e-01 -2.0525871e-02 
5.2788699e-01 4.6301615e-01 -1.8585050e-02 
5.2359360e-01 4.5903602e-01 -1.1226793e-02 