# vtk DataFile Version 4.0
vtk output
ASCII
DATASET UNSTRUCTURED_GRID
POINTS 6166 float
-4.3633327e-01 9.6409470e-01 4.4200001e+01 
-4.3633261e-01 9.6409082e-01 4.4079685e+01 
-3.2145375e-01 9.1276109e-01 4.4200001e+01 
-3.8566181e-01 8.4097892e-01 4.4200001e+01 
-3.3069235e-01 9.1895354e-01 4.4019413e+01 
-3.8473952e-01 8.3919770e-01 4.4024357e+01 
-4.3633196e-01 9.6408689e-01 4.3958702e+01 
-2.1293370e-01 8.4677851e-01 4.4200001e+01 
-2.9042658e-01 7.3813015e-01 4.4200001e+01 
-2.1019450e-01 8.4669626e-01 4.4077393e+01 
-2.8909999e-01 7.3605996e-01 4.4073399e+01 
-3.2963324e-01 9.1929907e-01 4.3898094e+01 
-3.8679782e-01 8.4179753e-01 4.3889645e+01 
-2.0740938e-01 8.4661204e-01 4.3952713e+01 
-4.3633130e-01 9.6408290e-01 4.3837040e+01 
-1.1677200e-01 7.7521002e-01 4.4200001e+01 
-2.8775173e-01 7.3395580e-01 4.3944717e+01 
-1.9365783e-01 6.6203654e-01 4.4200001e+01 
-1.1309985e-01 7.7540898e-01 4.4012005e+01 
-1.9181472e-01 6.5888047e-01 4.4006447e+01 
-3.2856464e-01 9.1964108e-01 4.3776085e+01 
-3.8823184e-01 8.4352189e-01 4.3765770e+01 
-2.0457739e-01 8.4652513e-01 4.3825886e+01 
-2.8638119e-01 7.3181647e-01 4.3813885e+01 
-4.3633065e-01 9.6407896e-01 4.3714680e+01 
-1.0911675e-01 7.7426714e-01 4.3886200e+01 
-2.1001574e-02 6.8269837e-01 4.4200001e+01 
-1.8902887e-01 6.5566909e-01 4.3876659e+01 
-7.8887597e-02 5.9015810e-01 4.4200001e+01 
-3.2748649e-01 9.1997939e-01 4.3653378e+01 
-3.9889076e-01 8.5876143e-01 4.3651733e+01 
-2.0169757e-01 8.4643483e-01 4.3696846e+01 
-7.2496021e-03 6.7325598e-01 4.3947758e+01 
-1.0504345e-01 7.7307969e-01 4.3758209e+01 
-2.8498772e-01 7.2964084e-01 4.3680840e+01 
-6.3224643e-02 5.7783771e-01 4.3940754e+01 
3.5808440e-02 6.2679136e-01 4.4056572e+01 
-1.8616955e-01 6.5238589e-01 4.3744686e+01 
-4.3632996e-01 9.6407503e-01 4.3591618e+01 
-9.8678423e-03 5.4892725e-01 4.4055367e+01 
-1.8652271e-02 6.8798620e-01 4.3834026e+01 
-7.9845116e-02 5.8636194e-01 4.3823372e+01 
8.7777540e-02 5.7885915e-01 4.4200001e+01 
5.3622175e-02 5.1732427e-01 4.4200001e+01 
-3.2639861e-01 9.2031354e-01 4.3529953e+01 
-3.9894739e-01 8.5844576e-01 4.3528313e+01 
-1.9876897e-01 8.4634024e-01 4.3565521e+01 
-1.0087753e-01 7.7184403e-01 4.3627972e+01 
-2.8357074e-01 7.2742778e-01 4.3545506e+01 
-1.8323407e-01 6.4902818e-01 4.3610458e+01 
-4.3632931e-01 9.6407109e-01 4.3467831e+01 
3.1033519e-03 6.6751039e-01 4.3691772e+01 
-5.3600248e-02 5.6906003e-01 4.3676846e+01 
1.2436585e-01 5.5082864e-01 4.3886215e+01 
1.7079005e-01 5.1095647e-01 4.4054855e+01 
1.4951277e-01 4.6697062e-01 4.4053665e+01 
1.0028158e-01 4.8915190e-01 4.3877911e+01 
-4.0513036e-01 8.6722642e-01 4.3405304e+01 
-3.2530096e-01 9.2064321e-01 4.3405800e+01 
-9.6616447e-02 7.7055699e-01 4.3495411e+01 
-8.4563000e-03 6.8258613e-01 4.3574005e+01 
-1.9579062e-01 8.4624058e-01 4.3431831e+01 
2.1753120e-01 4.7335833e-01 4.4200001e+01 
2.0360756e-01 4.4289169e-01 4.4200001e+01 
-1.8021962e-01 6.4559317e-01 4.3473904e+01 
-7.0636064e-02 5.7773441e-01 4.3555408e+01 
-2.8212959e-01 7.2517604e-01 4.3407806e+01 
-4.3632865e-01 9.6406716e-01 4.3343307e+01 
1.3810426e-01 5.4143524e-01 4.3628246e+01 
-3.2419339e-01 9.2096806e-01 4.3280907e+01 
-3.9903235e-01 8.5775709e-01 4.3279266e+01 
-9.2257597e-02 7.6921552e-01 4.3360443e+01 
1.1508528e-01 4.7804743e-01 4.3612068e+01 
-1.9276154e-01 8.4613472e-01 4.3295704e+01 
1.4013666e-02 6.6131532e-01 4.3426643e+01 
-1.7712323e-01 6.4207786e-01 4.3334946e+01 
-2.8066361e-01 7.2288430e-01 4.3267666e+01 
-4.3382257e-02 5.5983055e-01 4.3403778e+01 
-4.3632799e-01 9.6406323e-01 4.3218033e+01 
3.7877345e-01 3.8273901e-01 4.4200001e+01 
3.9076596e-01 3.7443376e-01 4.3993755e+01 
-3.2307580e-01 9.2128778e-01 4.3155251e+01 
-3.9906058e-01 8.5738426e-01 4.3153610e+01 
-8.7798268e-02 7.6781619e-01 4.3222996e+01 
1.9689407e-02 6.5803534e-01 4.3290459e+01 
-6.0862999e-02 5.6866169e-01 4.3278019e+01 
-1.8968078e-01 8.4602165e-01 4.3157055e+01 
-1.7394182e-01 6.3847917e-01 4.3193501e+01 
-4.3632734e-01 9.6405929e-01 4.3091995e+01 
4.0275589e-01 3.6612594e-01 4.3787510e+01 
1.2304078e-01 5.5709994e-01 4.3330139e+01 
-2.7917209e-01 7.2055119e-01 4.3125000e+01 
2.5336364e-01 4.4907436e-01 4.3468094e+01 
2.3670304e-01 4.1684708e-01 4.3469433e+01 
1.3086085e-01 4.6634668e-01 4.3336948e+01 
-3.8351217e-01 8.3473074e-01 4.3036392e+01 
-3.2194808e-01 9.2160189e-01 4.3028820e+01 
2.5518833e-02 6.5462554e-01 4.3151749e+01 
-8.3235659e-02 7.6635528e-01 4.3082981e+01 
4.1474071e-01 3.5781288e-01 4.3581264e+01 
-1.8654740e-01 8.4590012e-01 4.3015797e+01 
-3.2522827e-02 5.5011308e-01 4.3120937e+01 
-1.7067213e-01 6.3479382e-01 4.3049488e+01 
-4.3632668e-01 9.6405542e-01 4.2965172e+01 
-2.7765438e-01 7.1817529e-01 4.2979721e+01 
2.6620242e-01 4.4011977e-01 4.3261948e+01 
1.3584816e-02 6.7044950e-01 4.3025066e+01 
-3.2081014e-01 9.2191011e-01 4.2901604e+01 
-3.8160574e-01 8.3169121e-01 4.2902863e+01 
-7.8566879e-02 7.6482886e-01 4.2940315e+01 
-5.0480481e-02 5.5910730e-01 4.2990566e+01 
4.2671782e-01 3.4949207e-01 4.3375019e+01 
1.6821145e-01 5.2049083e-01 4.3083881e+01 
-1.8336046e-01 8.4576881e-01 4.2871841e+01 
-4.3632606e-01 9.6405160e-01 4.2837555e+01 
-1.6731077e-01 6.3101834e-01 4.2902817e+01 
1.4768846e-01 4.5400122e-01 4.3051926e+01 
-2.7610970e-01 7.1575516e-01 4.2831745e+01 
-3.1966189e-01 9.2221189e-01 4.2773579e+01 
-3.8560396e-01 8.3684862e-01 4.2767078e+01 
3.7660085e-02 6.4738947e-01 4.2866421e+01 
-7.3788933e-02 7.6323271e-01 4.2794899e+01 
4.3868470e-01 3.4116083e-01 4.3168777e+01 
-4.3632543e-01 9.6404779e-01 4.2709122e+01 
-2.0968946e-02 5.3986710e-01 4.2827656e+01 
-1.8011902e-01 8.4562629e-01 4.2725094e+01 
-1.6385415e-01 6.2714905e-01 4.2753403e+01 
-2.7453732e-01 7.1328926e-01 4.2680973e+01 
-3.1850323e-01 9.2250693e-01 4.2644733e+01 
-3.9907700e-01 8.5570478e-01 4.2643101e+01 
2.5504474e-02 6.6361672e-01 4.2734810e+01 
1.8471870e-01 5.0880390e-01 4.2796177e+01 
-6.8898737e-02 7.6156229e-01 4.2646645e+01 
-3.9438177e-02 5.4903054e-01 4.2692345e+01 
-4.3632481e-01 9.6404403e-01 4.2579861e+01 
4.5063871e-01 3.3281663e-01 4.2962532e+01 
1.6565691e-01 4.4095638e-01 4.2756321e+01 
-1.7682223e-01 8.4547096e-01 4.2575459e+01 
-1.6029853e-01 6.2318206e-01 4.2601143e+01 
-4.0415615e-01 8.6278629e-01 4.2516582e+01 
-3.1733403e-01 9.2279470e-01 4.2515053e+01 
-2.7293649e-01 7.1077597e-01 4.2527313e+01 
5.0482783e-02 6.3954860e-01 4.2569923e+01 
-4.3632418e-01 9.6404034e-01 4.2449757e+01 
-6.3893095e-02 7.5981271e-01 4.2495445e+01 
-8.6617703e-03 5.2904755e-01 4.2523201e+01 
-1.7346917e-01 8.4530097e-01 4.2422829e+01 
-1.5663996e-01 6.1911333e-01 4.2445942e+01 
3.0435190e-01 4.1341871e-01 4.2643494e+01 
4.6257737e-01 3.2445681e-01 4.2756287e+01 
-3.1615424e-01 9.2307472e-01 4.2384518e+01 
-3.9902648e-01 8.5475212e-01 4.2382885e+01 
-2.7130640e-01 7.0821363e-01 4.2370659e+01 
3.8079392e-02 6.5619886e-01 4.2433029e+01 
2.0230262e-01 4.9620378e-01 4.2497147e+01 
-4.3632355e-01 9.6403670e-01 4.2318787e+01 
-5.8768708e-02 7.5797862e-01 4.2341198e+01 
-2.7680276e-02 5.3838593e-01 4.2382599e+01 
1.8486446e-01 4.2715022e-01 4.2449394e+01 
-3.8436696e-01 8.3356136e-01 4.2264896e+01 
8.9545198e-02 5.3233254e-01 4.2382050e+01 
-3.3225983e-01 9.3122375e-01 4.2255634e+01 
-1.7005907e-01 8.4511453e-01 4.2267101e+01 
-1.5287429e-01 6.1493850e-01 4.2287693e+01 
4.7449806e-01 3.1607881e-01 4.2550037e+01 
-2.6964626e-01 7.0560038e-01 4.2210907e+01 
-4.3632296e-01 9.6403313e-01 4.2186939e+01 
6.4036883e-02 6.3103610e-01 4.2261456e+01 
-5.3522192e-02 7.5605446e-01 4.2183796e+01 
-3.7873057e-01 8.2541841e-01 4.2124020e+01 
-3.1376252e-01 9.2360973e-01 4.2120819e+01 
4.4639236e-03 5.1760370e-01 4.2206776e+01 
-1.6659111e-01 8.4490943e-01 4.2108162e+01 
-1.4899719e-01 6.1065292e-01 4.2126286e+01 
-4.3632239e-01 9.6402961e-01 4.2054195e+01 
4.8639825e-01 3.0768004e-01 4.2343792e+01 
-2.6795524e-01 7.0293444e-01 4.2047943e+01 
2.4746621e-01 4.6040925e-01 4.2191032e+01 
7.1105182e-02 6.2650448e-01 4.2102463e+01 
-3.1255043e-01 9.2386365e-01 4.1987617e+01 
-4.8150036e-02 7.5403398e-01 4.2023121e+01 
-1.5144684e-02 5.2712250e-01 4.2060505e+01 
-3.7995064e-01 8.2661813e-01 4.1980038e+01 
2.0541981e-01 4.1251117e-01 4.2130333e+01 
-1.6306458e-01 8.4468329e-01 4.1945896e+01 
-4.3632182e-01 9.6402621e-01 4.1920536e+01 
-1.4500406e-01 6.0625184e-01 4.1961609e+01 
1.3375351e-01 5.6370503e-01 4.1969833e+01 
-2.6623246e-01 7.0021385e-01 4.1881653e+01 
-3.1132740e-01 9.2410773e-01 4.1853493e+01 
-3.9880505e-01 8.5261923e-01 4.1851868e+01 
4.9827534e-01 2.9925787e-01 4.2137547e+01 
3.4194937e-01 3.8685825e-01 4.2025021e+01 
-4.2648647e-02 7.5191063e-01 4.1859051e+01 
-2.5401810e-01 7.9503769e-01 4.1808533e+01 
1.8480448e-02 5.0547802e-01 4.1877510e+01 
-4.3632126e-01 9.6402287e-01 4.1785946e+01 
-1.5947884e-01 8.4443361e-01 4.1780174e+01 
-1.4089009e-01 6.0172999e-01 4.1793541e+01 
-3.1009343e-01 9.2434150e-01 4.1718426e+01 
-4.0306881e-01 8.5845691e-01 4.1716179e+01 
8.5861288e-02 6.1683756e-01 4.1774368e+01 
-2.6447710e-01 6.9743657e-01 4.1711910e+01 
3.0427080e-01 4.1638452e-01 4.1839512e+01 
2.6751360e-01 3.7833902e-01 4.1830902e+01 
5.1012677e-01 2.9080975e-01 4.1931297e+01 
-3.7014309e-02 7.4967718e-01 4.1691463e+01 
-4.3632072e-01 9.6401966e-01 4.1650398e+01 
2.5847588e-02 4.9913955e-01 4.1707767e+01 
-1.5583332e-01 8.4415752e-01 4.1610870e+01 
-3.8322043e-01 8.2981020e-01 4.1595791e+01 
-3.0884841e-01 9.2456430e-01 4.1582397e+01 
-1.3665022e-01 5.9708190e-01 4.1621960e+01 
9.3565010e-02 6.1167872e-01 4.1605015e+01 
-2.6268822e-01 6.9460052e-01 4.1538593e+01 
-4.3632022e-01 9.6401656e-01 4.1513885e+01 
-3.1243213e-02 7.4732590e-01 4.1520226e+01 
2.7603787e-01 3.7115356e-01 4.1624012e+01 
2.8505871e-01 4.3281260e-01 4.1611507e+01 
5.2195001e-01 2.8233302e-01 4.1725052e+01 
3.3468332e-02 4.9260557e-01 4.1534447e+01 
-3.9853087e-01 8.5081697e-01 4.1443768e+01 
-3.2560509e-01 9.3245691e-01 4.1443577e+01 
-1.5212752e-01 8.4385180e-01 4.1437847e+01 
-1.3227913e-01 5.9230179e-01 4.1446728e+01 
-4.3631971e-01 9.6401358e-01 4.1376381e+01 
[...]
POINT_DATA 6166
FIELD FieldData 5
DISPLACEMENT 3 6166  float
2.8812482e+00 2.6313715e+00 -2.8674936e-01 
2.8642612e+00 2.6142738e+00 -2.8431016e-01 
2.8806105e+00 2.6307278e+00 -2.9567349e-01 
2.8819823e+00 2.6321125e+00 -2.7640745e-01 
2.8551445e+00 2.6050961e+00 -2.9158872e-01 
2.8571925e+00 2.6071613e+00 -2.7272436e-01 
2.8471801e+00 2.5970814e+00 -2.8185731e-01 
2.8801847e+00 2.6302979e+00 -3.0161801e-01 
2.8820629e+00 2.6321938e+00 -2.7523735e-01 
2.8628476e+00 2.6128478e+00 -2.9950789e-01 
2.8641958e+00 2.6142104e+00 -2.7256429e-01 
2.8380015e+00 2.5878415e+00 -2.8932807e-01 
2.8381677e+00 2.5880122e+00 -2.7007282e-01 
2.8452168e+00 2.5951023e+00 -2.9736176e-01 
2.8300030e+00 2.5797927e+00 -2.7939063e-01 
2.8799398e+00 2.6300507e+00 -3.0502391e-01 
2.8460352e+00 2.5959315e+00 -2.6984748e-01 
2.8818574e+00 2.6319866e+00 -2.7808583e-01 
2.8533585e+00 2.6032963e+00 -3.0176005e-01 
2.8545437e+00 2.6044950e+00 -2.7397445e-01 
2.8207619e+00 2.5704896e+00 -2.8705418e-01 
2.8206754e+00 2.5704062e+00 -2.6760489e-01 
2.8272834e+00 2.5770519e+00 -2.9517823e-01 
2.8275719e+00 2.5773480e+00 -2.6708567e-01 
2.8127284e+00 2.5624058e+00 -2.7690998e-01 
2.8355677e+00 2.5853894e+00 -2.9960984e-01 
2.8799102e+00 2.6300211e+00 -3.0539826e-01 
2.8362234e+00 2.5860555e+00 -2.7128091e-01 
2.8814282e+00 2.6315534e+00 -2.8407466e-01 
2.8034239e+00 2.5530388e+00 -2.8476673e-01 
2.8045294e+00 2.5541551e+00 -2.6595488e-01 
2.8090374e+00 2.5586872e+00 -2.9295599e-01 
2.8442538e+00 2.5941319e+00 -3.0088499e-01 
2.8174691e+00 2.5671728e+00 -2.9742160e-01 
2.8087962e+00 2.5584507e+00 -2.6427776e-01 
2.8447926e+00 2.5946794e+00 -2.7928060e-01 
2.8596532e+00 2.6096318e+00 -3.0256665e-01 
2.8175952e+00 2.5673063e+00 -2.6854399e-01 
2.7953548e+00 2.5449195e+00 -2.7441528e-01 
2.8607290e+00 2.6107187e+00 -2.8502795e-01 
2.8281629e+00 2.5779362e+00 -2.9906306e-01 
2.8283007e+00 2.5780804e+00 -2.7576658e-01 
2.8798645e+00 2.6299751e+00 -3.0599937e-01 
2.8808300e+00 2.6309500e+00 -2.9243213e-01 
2.7859859e+00 2.5354884e+00 -2.8246585e-01 
2.7871091e+00 2.5366223e+00 -2.6340163e-01 
2.7904694e+00 2.5399990e+00 -2.9069361e-01 
2.7990530e+00 2.5486369e+00 -2.9519379e-01 
2.7896986e+00 2.5392292e+00 -2.6142207e-01 
2.7986493e+00 2.5482380e+00 -2.6576185e-01 
2.7778804e+00 2.5273328e+00 -2.7190575e-01 
2.8080668e+00 2.5577092e+00 -2.9634100e-01 
2.8075237e+00 2.5571685e+00 -2.7404377e-01 
2.8354762e+00 2.5852966e+00 -3.0082077e-01 
2.8592217e+00 2.6091971e+00 -3.0512723e-01 
2.8597124e+00 2.6096931e+00 -2.9584798e-01 
2.8351693e+00 2.5849907e+00 -2.8848717e-01 
2.7697194e+00 2.5191205e+00 -2.6128519e-01 
2.7684464e+00 2.5178359e+00 -2.8015038e-01 
2.7803097e+00 2.5297720e+00 -2.9292494e-01 
2.7914054e+00 2.5409393e+00 -2.9446405e-01 
2.7715693e+00 2.5209765e+00 -2.8838962e-01 
2.8796241e+00 2.6297326e+00 -3.0932528e-01 
2.8800721e+00 2.6301851e+00 -3.0302954e-01 
2.7793765e+00 2.5288408e+00 -2.6293439e-01 
2.7904639e+00 2.5399988e+00 -2.7041170e-01 
2.7702692e+00 2.5196748e+00 -2.5851840e-01 
2.7603045e+00 2.5096436e+00 -2.6938257e-01 
2.7990112e+00 2.5485942e+00 -2.9619622e-01 
2.7508044e+00 2.5000815e+00 -2.7782220e-01 
2.7519639e+00 2.5012517e+00 -2.5824946e-01 
2.7612293e+00 2.5105684e+00 -2.9061341e-01 
2.7975986e+00 2.5471759e+00 -2.8361145e-01 
2.7523267e+00 2.5016108e+00 -2.8604227e-01 
2.7705920e+00 2.5199909e+00 -2.9162663e-01 
2.7597663e+00 2.5091045e+00 -2.6006001e-01 
2.7504976e+00 2.4997764e+00 -2.5556368e-01 
2.7689648e+00 2.5183609e+00 -2.6864463e-01 
2.7426245e+00 2.4918509e+00 -2.6684424e-01 
2.8789165e+00 2.6290183e+00 -3.1921151e-01 
2.8497596e+00 2.5996704e+00 -3.1554329e-01 
2.7330577e+00 2.4822211e+00 -2.7547929e-01 
2.7342362e+00 2.4834106e+00 -2.5565010e-01 
2.7418005e+00 2.4910157e+00 -2.8825763e-01 
2.7513463e+00 2.5006213e+00 -2.8920114e-01 
2.7513020e+00 2.5005856e+00 -2.6488793e-01 
2.7327306e+00 2.4818907e+00 -2.8364959e-01 
2.7398088e+00 2.4890199e+00 -2.5713766e-01 
2.7248387e+00 2.4739530e+00 -2.6429129e-01 
2.8206029e+00 2.5703230e+00 -3.1187421e-01 
2.7569230e+00 2.5062332e+00 -2.9025239e-01 
2.7303734e+00 2.4795249e+00 -2.5255829e-01 
2.7761736e+00 2.5256076e+00 -2.9609647e-01 
2.7768555e+00 2.5262957e+00 -2.8919271e-01 
2.7587194e+00 2.5080457e+00 -2.7860177e-01 
2.7177689e+00 2.4668398e+00 -2.5225696e-01 
2.7152052e+00 2.4642565e+00 -2.7312073e-01 
2.7317479e+00 2.4808986e+00 -2.8672910e-01 
2.7220130e+00 2.4711032e+00 -2.8585634e-01 
2.7914481e+00 2.5409787e+00 -3.0820367e-01 
2.7127705e+00 2.4618051e+00 -2.8121260e-01 
2.7290351e+00 2.4781780e+00 -2.6307574e-01 
2.7194915e+00 2.4685755e+00 -2.5416428e-01 
2.7069473e+00 2.4559493e+00 -2.6172310e-01 
2.7098851e+00 2.4589076e+00 -2.4950007e-01 
2.7470376e+00 2.4962828e+00 -2.9245660e-01 
2.7138352e+00 2.4628727e+00 -2.8472638e-01 
2.6972446e+00 2.4461858e+00 -2.7074841e-01 
2.6989429e+00 2.4478972e+00 -2.4939477e-01 
2.7018549e+00 2.4508193e+00 -2.8340736e-01 
2.7107317e+00 2.4597602e+00 -2.5918546e-01 
2.7622991e+00 2.5116386e+00 -3.0452889e-01 
2.7220852e+00 2.4711738e+00 -2.8643933e-01 
2.6924343e+00 2.4413428e+00 -2.7872676e-01 
2.6889458e+00 2.4378376e+00 -2.5913906e-01 
2.6988051e+00 2.4477606e+00 -2.5114214e-01 
2.7184517e+00 2.4675229e+00 -2.7345732e-01 
2.6890206e+00 2.4379156e+00 -2.4638802e-01 
2.6791744e+00 2.4280057e+00 -2.6836050e-01 
2.6797810e+00 2.4286175e+00 -2.4682152e-01 
2.6914463e+00 2.4403458e+00 -2.8163600e-01 
2.6813152e+00 2.4301529e+00 -2.8090903e-01 
2.7331512e+00 2.4823029e+00 -3.0085358e-01 
2.6708350e+00 2.4196181e+00 -2.5654143e-01 
2.6876473e+00 2.4365342e+00 -2.5732657e-01 
2.6717103e+00 2.4204934e+00 -2.7619067e-01 
2.6777353e+00 2.4265637e+00 -2.4806570e-01 
2.6677701e+00 2.4165368e+00 -2.4322224e-01 
2.6609955e+00 2.4097176e+00 -2.6595685e-01 
2.6622484e+00 2.4109797e+00 -2.4509658e-01 
2.6728475e+00 2.4216318e+00 -2.7956009e-01 
2.6814525e+00 2.4302886e+00 -2.8128651e-01 
2.6603816e+00 2.4090934e+00 -2.7835825e-01 
2.6686616e+00 2.4174340e+00 -2.5329441e-01 
2.6526155e+00 2.4012902e+00 -2.5393075e-01 
2.7040160e+00 2.4529855e+00 -2.9717857e-01 
2.6767054e+00 2.4255176e+00 -2.6816714e-01 
2.6505878e+00 2.3992462e+00 -2.7360323e-01 
2.6562748e+00 2.4049747e+00 -2.4494003e-01 
2.6443956e+00 2.3930237e+00 -2.4283545e-01 
2.6427062e+00 2.3913238e+00 -2.6354155e-01 
2.6461227e+00 2.3947601e+00 -2.3999816e-01 
2.6495976e+00 2.3982437e+00 -2.7633089e-01 
2.6342835e+00 2.3828521e+00 -2.5130317e-01 
2.6390452e+00 2.3876321e+00 -2.7575502e-01 
2.6447136e+00 2.3933454e+00 -2.5139388e-01 
2.6290534e+00 2.3775876e+00 -2.7096263e-01 
2.6344128e+00 2.3829846e+00 -2.4175654e-01 
2.6596873e+00 2.4083912e+00 -2.8153130e-01 
2.6748948e+00 2.4236877e+00 -2.9350311e-01 
2.6243031e+00 2.3728125e+00 -2.6111031e-01 
2.6255932e+00 2.3741109e+00 -2.3973027e-01 
2.6240637e+00 2.3725750e+00 -2.3671548e-01 
2.6302702e+00 2.3788052e+00 -2.7417946e-01 
2.6392546e+00 2.3878403e+00 -2.7593493e-01 
2.6158383e+00 2.3643017e+00 -2.4866273e-01 
2.6172864e+00 2.3657496e+00 -2.7309883e-01 
2.6250041e+00 2.3735232e+00 -2.4721137e-01 
2.6333928e+00 2.3819513e+00 -2.6272914e-01 
2.6090453e+00 2.3574693e+00 -2.3642465e-01 
2.6238122e+00 2.3723154e+00 -2.6284975e-01 
2.6062379e+00 2.3546460e+00 -2.5739342e-01 
2.6070936e+00 2.3555040e+00 -2.6826707e-01 
2.6121273e+00 2.3605750e+00 -2.3852058e-01 
2.6457865e+00 2.3944020e+00 -2.8982115e-01 
2.6015801e+00 2.3499677e+00 -2.3337692e-01 
2.5972815e+00 2.3456430e+00 -2.4600780e-01 
2.6060987e+00 2.3544967e+00 -2.7080330e-01 
2.5950975e+00 2.3434360e+00 -2.7038416e-01 
2.5892432e+00 2.3375621e+00 -2.3323761e-01 
2.5871601e+00 2.3354633e+00 -2.5619864e-01 
2.6001289e+00 2.3485103e+00 -2.4526417e-01 
2.5846965e+00 2.3329844e+00 -2.6551783e-01 
2.5894101e+00 2.3377357e+00 -2.3522319e-01 
2.5786090e+00 2.3268697e+00 -2.4333590e-01 
2.6166942e+00 2.3651435e+00 -2.8614014e-01 
2.5786593e+00 2.3269248e+00 -2.2997639e-01 
2.5960505e+00 2.3443933e+00 -2.7105099e-01 
2.5837016e+00 2.3319740e+00 -2.6795220e-01 
2.5684130e+00 2.3166211e+00 -2.5372136e-01 
2.5724623e+00 2.3206792e+00 -2.6760840e-01 
2.5796473e+00 2.3279202e+00 -2.4092363e-01 
2.5689905e+00 2.3172050e+00 -2.3035006e-01 
2.5884066e+00 2.3367133e+00 -2.5713277e-01 
2.5618474e+00 2.3100150e+00 -2.6270688e-01 
2.5598152e+00 2.3079815e+00 -2.4064705e-01 
2.5662506e+00 2.3144574e+00 -2.3187426e-01 
2.5650468e+00 2.3132241e+00 -2.6520950e-01 
2.5552897e+00 2.3034384e+00 -2.2651744e-01 
2.5495491e+00 2.2976637e+00 -2.5122541e-01 
2.5509074e+00 2.2990303e+00 -2.2881474e-01 
2.5876331e+00 2.3359261e+00 -2.8246126e-01 
2.5724869e+00 2.3207011e+00 -2.7058837e-01 
2.5493715e+00 2.2974699e+00 -2.6477116e-01 
2.5439510e+00 2.2920396e+00 -2.4015564e-01 
2.5537944e+00 2.3019361e+00 -2.3893416e-01 
2.5409091e+00 2.2889867e+00 -2.3794626e-01 
2.5385382e+00 2.2865932e+00 -2.5982791e-01 
2.5426388e+00 2.2907295e+00 -2.2847383e-01 
2.5305698e+00 2.2785962e+00 -2.4871606e-01 
2.5318394e+00 2.2798765e+00 -2.2633804e-01 
2.5375364e+00 2.2855742e+00 -2.6204720e-01 
2.5314593e+00 2.2794988e+00 -2.2300102e-01 
2.5464866e+00 2.2945676e+00 -2.6573992e-01 
2.5460193e+00 2.2941060e+00 -2.5503215e-01 
2.5585849e+00 2.3067191e+00 -2.7877137e-01 
2.5258157e+00 2.2738004e+00 -2.6186985e-01 
2.5218861e+00 2.2698796e+00 -2.3523816e-01 
2.5299442e+00 2.2779753e+00 -2.3570022e-01 
2.5147557e+00 2.2627008e+00 -2.5689006e-01 
2.5150356e+00 2.2630002e+00 -2.2269793e-01 
2.5114825e+00 2.2594254e+00 -2.4618906e-01 
2.5185564e+00 2.2665431e+00 -2.2500464e-01 
2.5137527e+00 2.2616796e+00 -2.5900698e-01 
2.5071619e+00 2.2550955e+00 -2.1942042e-01 
2.5027583e+00 2.2506652e+00 -2.3251735e-01 
2.5017724e+00 2.2496533e+00 -2.5890335e-01 
2.5169621e+00 2.2649145e+00 -2.5108284e-01 
2.5145111e+00 2.2624421e+00 -2.6078731e-01 
2.5295768e+00 2.2775683e+00 -2.7508399e-01 
2.5056188e+00 2.2535465e+00 -2.3241037e-01 
2.4936869e+00 2.2415559e+00 -2.2049393e-01 
2.4921291e+00 2.2399862e+00 -2.4217767e-01 
2.4904788e+00 2.2383265e+00 -2.5389287e-01 
2.4939976e+00 2.2418854e+00 -2.2148524e-01 
2.4835048e+00 2.2313354e+00 -2.2977570e-01 
2.4930377e+00 2.2408793e+00 -2.5603145e-01 
2.4823744e+00 2.2302122e+00 -2.1578112e-01 
2.4772351e+00 2.2250187e+00 -2.5587225e-01 
2.4729531e+00 2.2207422e+00 -2.4110344e-01 
2.4743693e+00 2.2221718e+00 -2.1768995e-01 
2.4808073e+00 2.2286401e+00 -2.2907123e-01 
2.4892790e+00 2.2371173e+00 -2.4826773e-01 
2.5006139e+00 2.2484756e+00 -2.7140138e-01 
2.4657030e+00 2.2134564e+00 -2.5082919e-01 
2.4841244e+00 2.2319319e+00 -2.5768641e-01 
2.4641309e+00 2.2118971e+00 -2.2701408e-01 
2.4689436e+00 2.2167420e+00 -2.1790583e-01 
2.4674981e+00 2.2152457e+00 -2.5269604e-01 
2.4535036e+00 2.2012315e+00 -2.3853321e-01 
2.4549356e+00 2.2026830e+00 -2.1487352e-01 
2.4570866e+00 2.2048395e+00 -2.1207549e-01 
2.4521844e+00 2.1998796e+00 -2.5277445e-01 
2.4554939e+00 2.2032430e+00 -2.2567962e-01 
2.4446363e+00 2.1923482e+00 -2.2424839e-01 
2.4616346e+00 2.2093773e+00 -2.4365096e-01 
2.4717009e+00 2.2194467e+00 -2.6771781e-01 
2.4404032e+00 2.1880755e+00 -2.4769776e-01 
2.4433777e+00 2.1910992e+00 -2.1426484e-01 
2.4560535e+00 2.2037625e+00 -2.5434798e-01 
2.4339371e+00 2.1816061e+00 -2.3594750e-01 
2.4353867e+00 2.1830776e+00 -2.1204647e-01 
2.4408805e+00 2.1885436e+00 -2.4927923e-01 
2.4312778e+00 2.1789618e+00 -2.0830435e-01 
2.4250238e+00 2.1726799e+00 -2.2147506e-01 
2.4266005e+00 2.1742225e+00 -2.4960585e-01 
2.4296591e+00 2.1773362e+00 -2.2223391e-01 
2.4142556e+00 2.1618748e+00 -2.3335154e-01 
2.4157169e+00 2.1633530e+00 -2.0920002e-01 
2.4145613e+00 2.1621692e+00 -2.4450040e-01 
2.4428420e+00 2.1904862e+00 -2.6403505e-01 
2.4172826e+00 2.1649427e+00 -2.1056190e-01 
2.4289982e+00 2.1766453e+00 -2.3838249e-01 
2.4282076e+00 2.1758306e+00 -2.5108296e-01 
2.4052887e+00 2.1528995e+00 -2.1867709e-01 
2.4138277e+00 2.1614187e+00 -2.4580161e-01 
2.4049320e+00 2.1525626e+00 -2.0447230e-01 
2.4004724e+00 2.1480339e+00 -2.4636038e-01 
2.4071796e+00 2.1548028e+00 -2.2110291e-01 
2.3944385e+00 2.1420207e+00 -2.3073918e-01 
2.3959227e+00 2.1435285e+00 -2.0636083e-01 
2.3881676e+00 2.1357241e+00 -2.4122448e-01 
2.4140308e+00 2.1615870e+00 -2.6037613e-01 
2.3854303e+00 2.1330161e+00 -2.1588957e-01 
2.3906507e+00 2.1382613e+00 -2.0679735e-01 
2.3999646e+00 2.1475177e+00 -2.4741049e-01 
2.3975554e+00 2.1451230e+00 -2.3646392e-01 
2.3866739e+00 2.1342072e+00 -2.4232247e-01 
2.3745108e+00 2.1220670e+00 -2.2812675e-01 
2.3759997e+00 2.1235845e+00 -2.0350230e-01 
2.3780472e+00 2.1256356e+00 -2.0056510e-01 
2.3737850e+00 2.1213019e+00 -2.4303895e-01 
2.3802228e+00 2.1277974e+00 -2.1878414e-01 
2.3654444e+00 2.1130056e+00 -2.1308026e-01 
2.3612185e+00 2.1087334e+00 -2.3787625e-01 
2.3619337e+00 2.1094844e+00 -2.1505141e-01 
2.3852820e+00 2.1327794e+00 -2.5671718e-01 
2.3634634e+00 2.1110415e+00 -2.0297076e-01 
2.3720379e+00 2.1195376e+00 -2.4336112e-01 
2.3544579e+00 2.1019938e+00 -2.2547695e-01 
2.3559535e+00 2.1035128e+00 -2.0062345e-01 
2.3592832e+00 2.1067781e+00 -2.3885469e-01 
2.3689675e+00 2.1164834e+00 -2.3371585e-01 
2.3505924e+00 2.0981572e+00 -1.9660048e-01 
2.3453412e+00 2.0928829e+00 -2.1024503e-01 
2.3465180e+00 2.0940063e+00 -2.3964447e-01 
2.3523300e+00 2.0998805e+00 -2.1527924e-01 
2.3342717e+00 2.0817950e+00 -2.2282925e-01 
2.3357964e+00 2.0833452e+00 -1.9774501e-01 
2.3336570e+00 2.0811632e+00 -2.3444305e-01 
2.3565800e+00 2.1040297e+00 -2.5306228e-01 
2.3357000e+00 2.0832651e+00 -1.9908310e-01 
2.3439698e+00 2.0914369e+00 -2.3970316e-01 
2.3251066e+00 2.0726480e+00 -2.0741574e-01 
2.3315349e+00 2.0790153e+00 -2.3531984e-01 
2.3409264e+00 2.0884151e+00 -2.3139068e-01 
2.3203099e+00 2.0678473e+00 -2.1595402e-01 
2.3225536e+00 2.0701199e+00 -1.9255280e-01 
2.3186486e+00 2.0661316e+00 -2.3616441e-01 
2.3139653e+00 2.0615013e+00 -2.2017115e-01 
2.3235040e+00 2.0710499e+00 -2.1223006e-01 
2.3131168e+00 2.0606747e+00 -1.9348653e-01 
2.3055003e+00 2.0530112e+00 -2.3094256e-01 
2.3047390e+00 2.0522962e+00 -2.0456526e-01 
2.3279636e+00 2.0753982e+00 -2.4941200e-01 
2.3073759e+00 2.0549519e+00 -1.9662550e-01 
2.3149612e+00 2.0624325e+00 -2.3562689e-01 
2.3042927e+00 2.0517731e+00 -2.3202425e-01 
2.3137438e+00 2.0612295e+00 -2.3054923e-01 
2.2935982e+00 2.0411522e+00 -2.1741311e-01 
2.2951367e+00 2.0427132e+00 -1.9198039e-01 
2.2939143e+00 2.0414987e+00 -1.8844321e-01 
2.2902958e+00 2.0378001e+00 -2.3261319e-01 
2.2843907e+00 2.0319657e+00 -2.0173058e-01 
2.2891591e+00 2.0367260e+00 -2.0806582e-01 
2.2769501e+00 2.0244963e+00 -2.2739041e-01 
2.2994475e+00 2.0468948e+00 -2.4576303e-01 
2.2733147e+00 2.0208848e+00 -2.1460858e-01 
2.2748630e+00 2.0224566e+00 -1.8916774e-01 
2.2787888e+00 2.0263951e+00 -1.9093467e-01 
2.2852633e+00 2.0327709e+00 -2.2693728e-01 
2.2802260e+00 2.0277274e+00 -2.3132285e-01 
2.2708766e+00 2.0184033e+00 -2.2772601e-01 
2.2641778e+00 2.0117762e+00 -1.9892706e-01 
2.2654057e+00 2.0130265e+00 -1.8435021e-01 
2.2619908e+00 2.0095336e+00 -2.2909825e-01 
2.2628284e+00 2.0104473e+00 -1.9941220e-01 
2.2531822e+00 2.0007856e+00 -2.1181768e-01 
2.2536781e+00 2.0013022e+00 -1.8506941e-01 
2.2488692e+00 1.9964554e+00 -2.2389357e-01 
2.2709949e+00 2.0184774e+00 -2.4212681e-01 
2.2504947e+00 1.9981557e+00 -1.8674526e-01 
2.2441058e+00 1.9917436e+00 -1.9613616e-01 
2.2469678e+00 1.9945294e+00 -2.2486356e-01 
2.2548182e+00 2.0023994e+00 -2.1578115e-01 
2.2562883e+00 2.0038321e+00 -2.3071834e-01 
2.2449961e+00 1.9925628e+00 -2.2455917e-01 
2.2373164e+00 1.9849969e+00 -1.8035354e-01 
2.2331734e+00 1.9808233e+00 -2.0904063e-01 
2.2347217e+00 1.9823922e+00 -1.8362306e-01 
2.2341528e+00 1.9817379e+00 -2.2562385e-01 
2.2347851e+00 1.9824655e+00 -1.9497712e-01 
2.2241762e+00 1.9718702e+00 -1.9338210e-01 
2.2212524e+00 1.9688963e+00 -2.2043429e-01 
2.2426181e+00 1.9901589e+00 -2.3853514e-01 
2.2226336e+00 1.9703662e+00 -1.8264842e-01 
2.2172282e+00 1.9649544e+00 -1.7971009e-01 
2.2133317e+00 1.9610386e+00 -2.0628281e-01 
2.2193758e+00 1.9669902e+00 -2.2144970e-01 
2.2279539e+00 1.9755534e+00 -2.2713196e-01 
2.2284868e+00 1.9761003e+00 -2.1974537e-01 
2.2096577e+00 1.9574149e+00 -1.7643459e-01 
2.2185376e+00 1.9662054e+00 -2.0562546e-01 
2.2067688e+00 1.9544291e+00 -2.2219963e-01 
2.2044055e+00 1.9521505e+00 -1.9064775e-01 
2.2127547e+00 1.9603877e+00 -2.2043103e-01 
2.2071757e+00 1.9549389e+00 -1.9064339e-01 
2.1936202e+00 1.9413809e+00 -2.0355479e-01 
2.1940794e+00 1.9418137e+00 -2.1704088e-01 
2.2142799e+00 1.9618765e+00 -2.3489386e-01 
2.1951983e+00 1.9430246e+00 -1.7863943e-01 
2.1916912e+00 1.9395002e+00 -1.7588890e-01 
2.1922390e+00 1.9399440e+00 -2.1809642e-01 
2.1847472e+00 1.9325749e+00 -1.8794557e-01 
2.1996675e+00 1.9473237e+00 -2.2354606e-01 
2.2001891e+00 1.9478624e+00 -2.1616401e-01 
2.1824157e+00 1.9302837e+00 -1.7259233e-01 
2.1798332e+00 1.9275964e+00 -2.1882895e-01 
2.1740417e+00 1.9218923e+00 -2.0083247e-01 
2.1755826e+00 1.9234505e+00 -1.7551845e-01 
2.1857793e+00 1.9335696e+00 -1.9926934e-01 
2.1845663e+00 1.9322931e+00 -2.1680044e-01 
2.1799893e+00 1.9278631e+00 -1.8641040e-01 
2.1710501e+00 1.9189351e+00 -1.8605053e-01 
2.1673627e+00 1.9152128e+00 -2.1369486e-01 
2.1652460e+00 1.9131567e+00 -1.8527432e-01 
2.1860335e+00 1.9337041e+00 -2.3127030e-01 
2.1657701e+00 1.9137032e+00 -1.7070676e-01 
2.1681871e+00 1.9161283e+00 -1.7472360e-01 
2.1655550e+00 1.9133703e+00 -2.1480079e-01 
2.1714947e+00 1.9192615e+00 -2.1997148e-01 
2.1720021e+00 1.9197918e+00 -2.1260493e-01 
2.1546235e+00 1.9025776e+00 -1.9813770e-01 
2.1561353e+00 1.9041049e+00 -1.7288004e-01 
2.1544430e+00 1.9023960e+00 -1.9048481e-01 
2.1555798e+00 1.9035801e+00 -1.6884670e-01 
2.1545939e+00 1.9025418e+00 -1.9409895e-01 
2.1533637e+00 1.9012434e+00 -2.1550024e-01 
2.1576667e+00 1.9056022e+00 -1.9578123e-01 
2.1564875e+00 1.9043469e+00 -2.1318538e-01 
2.1532326e+00 1.9012376e+00 -1.8229678e-01 
2.1458981e+00 1.8939148e+00 -1.8261471e-01 
2.1464059e+00 1.8944474e+00 -1.6809098e-01 
2.1410918e+00 1.8890784e+00 -2.1037257e-01 
2.1387632e+00 1.8868318e+00 -1.7147745e-01 
2.1415720e+00 1.8896660e+00 -1.7088144e-01 
2.1578994e+00 1.9056953e+00 -2.2766151e-01 
2.1382427e+00 1.8863024e+00 -1.8172008e-01 
2.1353512e+00 1.8834059e+00 -1.9546029e-01 
2.1393301e+00 1.8872888e+00 -2.1158582e-01 
2.1434321e+00 1.8913532e+00 -2.1641500e-01 
2.1439273e+00 1.8918750e+00 -2.0906430e-01 
2.1267006e+00 1.8748353e+00 -1.8001081e-01 
2.1291738e+00 1.8773384e+00 -1.6517609e-01 
2.1272979e+00 1.8753372e+00 -2.1221866e-01 
2.1268804e+00 1.8750502e+00 -1.7822345e-01 
2.1296592e+00 1.8777496e+00 -1.9234002e-01 
2.1285107e+00 1.8765317e+00 -2.0961103e-01 
2.1162348e+00 1.8644129e+00 -1.9282667e-01 
2.1182165e+00 1.8664132e+00 -1.8010613e-01 
2.1177266e+00 1.8659409e+00 -1.6771461e-01 
2.1152430e+00 1.8633863e+00 -2.0713094e-01 
2.1153731e+00 1.8636287e+00 -1.6712962e-01 
2.1298850e+00 1.8778381e+00 -2.2406273e-01 
2.1135211e+00 1.8616370e+00 -2.0839153e-01 
2.1076448e+00 1.8559133e+00 -1.7741288e-01 
2.1081467e+00 1.8564386e+00 -1.6289891e-01 
2.1024742e+00 1.8507420e+00 -1.8852930e-01 
2.1016934e+00 1.8498945e+00 -2.0899598e-01 
2.1031547e+00 1.8514963e+00 -1.6158481e-01 
2.1154895e+00 1.8635788e+00 -2.1287027e-01 
2.1159732e+00 1.8640902e+00 -2.0553413e-01 
2.0999036e+00 1.8482245e+00 -1.7756444e-01 
2.0986233e+00 1.8469419e+00 -1.8511778e-01 
2.0972416e+00 1.8455621e+00 -1.9020581e-01 
2.0987353e+00 1.8470949e+00 -1.6516389e-01 
2.1009161e+00 1.8492728e+00 -1.7426524e-01 
2.1017525e+00 1.8500428e+00 -1.8888652e-01 
2.1006312e+00 1.8488460e+00 -2.0603633e-01 
2.0898304e+00 1.8381561e+00 -2.0392719e-01 
2.0887234e+00 1.8371485e+00 -1.7485467e-01 
2.0892265e+00 1.8376750e+00 -1.6036333e-01 
2.0895932e+00 1.8380589e+00 -1.6347817e-01 
2.0881195e+00 1.8364161e+00 -2.0528452e-01 
2.1019783e+00 1.8501111e+00 -2.2047412e-01 
2.0783930e+00 1.8268695e+00 -1.8761215e-01 
2.0798938e+00 1.8284079e+00 -1.6264552e-01 
2.0775490e+00 1.8260359e+00 -1.8089987e-01 
2.0764983e+00 1.8248994e+00 -2.0582539e-01 
2.0775330e+00 1.8260881e+00 -1.5804465e-01 
2.0876379e+00 1.8359249e+00 -2.0933418e-01 
2.0881128e+00 1.8364279e+00 -2.0201595e-01 
2.0699401e+00 1.8185246e+00 -1.7234132e-01 