# vtk DataFile Version 4.0
vtk output
ASCII
DATASET UNSTRUCTURED_GRID
POINTS 6166 float
-4.3633327e-01 9.6409470e-01 4.4200001e+01 
-4.3633261e-01 9.6409082e-01 4.4079685e+01 
-3.2145375e-01 9.1276109e-01 4.4200001e+01 
-3.8566181e-01 8.4097892e-01 4.4200001e+01 
-3.3069235e-01 9.1895354e-01 4.4019413e+01 
-3.8473952e-01 8.3919770e-01 4.4024357e+01 
-4.3633196e-01 9.6408689e-01 4.3958702e+01 
-2.1293370e-01 8.4677851e-01 4.4200001e+01 
-2.9042658e-01 7.3813015e-01 4.4200001e+01 
-2.1019450e-01 8.4669626e-01 4.4077393e+01 
-2.8909999e-01 7.3605996e-01 4.4073399e+01 
-3.2963324e-01 9.1929907e-01 4.3898094e+01 
-3.8679782e-01 8.4179753e-01 4.3889645e+01 
-2.0740938e-01 8.4661204e-01 4.3952713e+01 
-4.3633130e-01 9.6408290e-01 4.3837040e+01 
-1.1677200e-01 7.7521002e-01 4.4200001e+01 
-2.8775173e-01 7.3395580e-01 4.3944717e+01 
-1.9365783e-01 6.6203654e-01 4.4200001e+01 
-1.1309985e-01 7.7540898e-01 4.4012005e+01 
-1.9181472e-01 6.5888047e-01 4.4006447e+01 
-3.2856464e-01 9.1964108e-01 4.3776085e+01 
-3.8823184e-01 8.4352189e-01 4.3765770e+01 
-2.0457739e-01 8.4652513e-01 4.3825886e+01 
-2.8638119e-01 7.3181647e-01 4.3813885e+01 
-4.3633065e-01 9.6407896e-01 4.3714680e+01 
-1.0911675e-01 7.7426714e-01 4.3886200e+01 
-2.1001574e-02 6.8269837e-01 4.4200001e+01 
-1.8902887e-01 6.5566909e-01 4.3876659e+01 
-7.8887597e-02 5.9015810e-01 4.4200001e+01 
-3.2748649e-01 9.1997939e-01 4.3653378e+01 
-3.9889076e-01 8.5876143e-01 4.3651733e+01 
-2.0169757e-01 8.4643483e-01 4.3696846e+01 
-7.2496021e-03 6.7325598e-01 4.3947758e+01 
-1.0504345e-01 7.7307969e-01 4.3758209e+01 
-2.8498772e-01 7.2964084e-01 4.3680840e+01 
-6.3224643e-02 5.7783771e-01 4.3940754e+01 
3.5808440e-02 6.2679136e-01 4.4056572e+01 
-1.8616955e-01 6.5238589e-01 4.3744686e+01 
-4.3632996e-01 9.6407503e-01 4.3591618e+01 
-9.8678423e-03 5.4892725e-01 4.4055367e+01 
-1.8652271e-02 6.8798620e-01 4.3834026e+01 
-7.9845116e-02 5.8636194e-01 4.3823372e+01 
8.7777540e-02 5.7885915e-01 4.4200001e+01 
5.3622175e-02 5.1732427e-01 4.4200001e+01 
-3.2639861e-01 9.2031354e-01 4.3529953e+01 
-3.9894739e-01 8.5844576e-01 4.3528313e+01 
-1.9876897e-01 8.4634024e-01 4.3565521e+01 
-1.0087753e-01 7.7184403e-01 4.3627972e+01 
-2.8357074e-01 7.2742778e-01 4.3545506e+01 
-1.8323407e-01 6.4902818e-01 4.3610458e+01 
-4.3632931e-01 9.6407109e-01 4.3467831e+01 
3.1033519e-03 6.6751039e-01 4.3691772e+01 
-5.3600248e-02 5.6906003e-01 4.3676846e+01 
1.2436585e-01 5.5082864e-01 4.3886215e+01 
1.7079005e-01 5.1095647e-01 4.4054855e+01 
1.4951277e-01 4.6697062e-01 4.4053665e+01 
1.0028158e-01 4.8915190e-01 4.3877911e+01 
-4.0513036e-01 8.6722642e-01 4.3405304e+01 
-3.2530096e-01 9.2064321e-01 4.3405800e+01 
-9.6616447e-02 7.7055699e-01 4.3495411e+01 
-8.4563000e-03 6.8258613e-01 4.3574005e+01 
-1.9579062e-01 8.4624058e-01 4.3431831e+01 
2.1753120e-01 4.7335833e-01 4.4200001e+01 
2.0360756e-01 4.4289169e-01 4.4200001e+01 
-1.8021962e-01 6.4559317e-01 4.3473904e+01 
-7.0636064e-02 5.7773441e-01 4.3555408e+01 
-2.8212959e-01 7.2517604e-01 4.3407806e+01 
-4.3632865e-01 9.6406716e-01 4.3343307e+01 
1.3810426e-01 5.4143524e-01 4.3628246e+01 
-3.2419339e-01 9.2096806e-01 4.3280907e+01 
-3.9903235e-01 8.5775709e-01 4.3279266e+01 
-9.2257597e-02 7.6921552e-01 4.3360443e+01 
1.1508528e-01 4.7804743e-01 4.3612068e+01 
-1.9276154e-01 8.4613472e-01 4.3295704e+01 
1.4013666e-02 6.6131532e-01 4.3426643e+01 
-1.7712323e-01 6.4207786e-01 4.3334946e+01 
-2.8066361e-01 7.2288430e-01 4.3267666e+01 
-4.3382257e-02 5.5983055e-01 4.3403778e+01 
-4.3632799e-01 9.6406323e-01 4.3218033e+01 
3.7877345e-01 3.8273901e-01 4.4200001e+01 
3.9076596e-01 3.7443376e-01 4.3993755e+01 
-3.2307580e-01 9.2128778e-01 4.3155251e+01 
-3.9906058e-01 8.5738426e-01 4.3153610e+01 
-8.7798268e-02 7.6781619e-01 4.3222996e+01 
1.9689407e-02 6.5803534e-01 4.3290459e+01 
-6.0862999e-02 5.6866169e-01 4.3278019e+01 
-1.8968078e-01 8.4602165e-01 4.3157055e+01 
-1.7394182e-01 6.3847917e-01 4.3193501e+01 
-4.3632734e-01 9.6405929e-01 4.3091995e+01 
4.0275589e-01 3.6612594e-01 4.3787510e+01 
1.2304078e-01 5.5709994e-01 4.3330139e+01 
-2.7917209e-01 7.2055119e-01 4.3125000e+01 
2.5336364e-01 4.4907436e-01 4.3468094e+01 
2.3670304e-01 4.1684708e-01 4.3469433e+01 
1.3086085e-01 4.6634668e-01 4.3336948e+01 
-3.8351217e-01 8.3473074e-01 4.3036392e+01 
-3.2194808e-01 9.2160189e-01 4.3028820e+01 
2.5518833e-02 6.5462554e-01 4.3151749e+01 
-8.3235659e-02 7.6635528e-01 4.3082981e+01 
4.1474071e-01 3.5781288e-01 4.3581264e+01 
-1.8654740e-01 8.4590012e-01 4.3015797e+01 
-3.2522827e-02 5.5011308e-01 4.3120937e+01 
-1.7067213e-01 6.3479382e-01 4.3049488e+01 
-4.3632668e-01 9.6405542e-01 4.2965172e+01 
-2.7765438e-01 7.1817529e-01 4.2979721e+01 
2.6620242e-01 4.4011977e-01 4.3261948e+01 
1.3584816e-02 6.7044950e-01 4.3025066e+01 
-3.2081014e-01 9.2191011e-01 4.2901604e+01 
-3.8160574e-01 8.3169121e-01 4.2902863e+01 
-7.8566879e-02 7.6482886e-01 4.2940315e+01 
-5.0480481e-02 5.5910730e-01 4.2990566e+01 
4.2671782e-01 3.4949207e-01 4.3375019e+01 
1.6821145e-01 5.2049083e-01 4.3083881e+01 
-1.8336046e-01 8.4576881e-01 4.2871841e+01 
-4.3632606e-01 9.6405160e-01 4.2837555e+01 
-1.6731077e-01 6.3101834e-01 4.2902817e+01 
1.4768846e-01 4.5400122e-01 4.3051926e+01 
-2.7610970e-01 7.1575516e-01 4.2831745e+01 
-3.1966189e-01 9.2221189e-01 4.2773579e+01 
-3.8560396e-01 8.3684862e-01 4.2767078e+01 
3.7660085e-02 6.4738947e-01 4.2866421e+01 
-7.3788933e-02 7.6323271e-01 4.2794899e+01 
4.3868470e-01 3.4116083e-01 4.3168777e+01 
-4.3632543e-01 9.6404779e-01 4.2709122e+01 
-2.0968946e-02 5.3986710e-01 4.2827656e+01 
-1.8011902e-01 8.4562629e-01 4.2725094e+01 
-1.6385415e-01 6.2714905e-01 4.2753403e+01 
-2.7453732e-01 7.1328926e-01 4.2680973e+01 
-3.1850323e-01 9.2250693e-01 4.2644733e+01 
-3.9907700e-01 8.5570478e-01 4.2643101e+01 
2.5504474e-02 6.6361672e-01 4.2734810e+01 
1.8471870e-01 5.0880390e-01 4.2796177e+01 
-6.8898737e-02 7.6156229e-01 4.2646645e+01 
-3.9438177e-02 5.4903054e-01 4.2692345e+01 
-4.3632481e-01 9.6404403e-01 4.2579861e+01 
4.5063871e-01 3.3281663e-01 4.2962532e+01 
1.6565691e-01 4.4095638e-01 4.2756321e+01 
-1.7682223e-01 8.4547096e-01 4.2575459e+01 
-1.6029853e-01 6.2318206e-01 4.2601143e+01 
-4.0415615e-01 8.6278629e-01 4.2516582e+01 
-3.1733403e-01 9.2279470e-01 4.2515053e+01 
-2.7293649e-01 7.1077597e-01 4.2527313e+01 
5.0482783e-02 6.3954860e-01 4.2569923e+01 
-4.3632418e-01 9.6404034e-01 4.2449757e+01 
-6.3893095e-02 7.5981271e-01 4.2495445e+01 
-8.6617703e-03 5.2904755e-01 4.2523201e+01 
-1.7346917e-01 8.4530097e-01 4.2422829e+01 
-1.5663996e-01 6.1911333e-01 4.2445942e+01 
3.0435190e-01 4.1341871e-01 4.2643494e+01 
4.6257737e-01 3.2445681e-01 4.2756287e+01 
-3.1615424e-01 9.2307472e-01 4.2384518e+01 
-3.9902648e-01 8.5475212e-01 4.2382885e+01 
-2.7130640e-01 7.0821363e-01 4.2370659e+01 
3.8079392e-02 6.5619886e-01 4.2433029e+01 
2.0230262e-01 4.9620378e-01 4.2497147e+01 
-4.3632355e-01 9.6403670e-01 4.2318787e+01 
-5.8768708e-02 7.5797862e-01 4.2341198e+01 
-2.7680276e-02 5.3838593e-01 4.2382599e+01 
1.8486446e-01 4.2715022e-01 4.2449394e+01 
-3.8436696e-01 8.3356136e-01 4.2264896e+01 
8.9545198e-02 5.3233254e-01 4.2382050e+01 
-3.3225983e-01 9.3122375e-01 4.2255634e+01 
-1.7005907e-01 8.4511453e-01 4.2267101e+01 
-1.5287429e-01 6.1493850e-01 4.2287693e+01 
4.7449806e-01 3.1607881e-01 4.2550037e+01 
-2.6964626e-01 7.0560038e-01 4.2210907e+01 
-4.3632296e-01 9.6403313e-01 4.2186939e+01 
6.4036883e-02 6.3103610e-01 4.2261456e+01 
-5.3522192e-02 7.5605446e-01 4.2183796e+01 
-3.7873057e-01 8.2541841e-01 4.2124020e+01 
-3.1376252e-01 9.2360973e-01 4.2120819e+01 
4.4639236e-03 5.1760370e-01 4.2206776e+01 
-1.6659111e-01 8.4490943e-01 4.2108162e+01 
-1.4899719e-01 6.1065292e-01 4.2126286e+01 
-4.3632239e-01 9.6402961e-01 4.2054195e+01 
4.8639825e-01 3.0768004e-01 4.2343792e+01 
-2.6795524e-01 7.0293444e-01 4.2047943e+01 
2.4746621e-01 4.6040925e-01 4.2191032e+01 
7.1105182e-02 6.2650448e-01 4.2102463e+01 
-3.1255043e-01 9.2386365e-01 4.1987617e+01 
-4.8150036e-02 7.5403398e-01 4.2023121e+01 
-1.5144684e-02 5.2712250e-01 4.2060505e+01 
-3.7995064e-01 8.2661813e-01 4.1980038e+01 
2.0541981e-01 4.1251117e-01 4.2130333e+01 
-1.6306458e-01 8.4468329e-01 4.1945896e+01 
-4.3632182e-01 9.6402621e-01 4.1920536e+01 
-1.4500406e-01 6.0625184e-01 4.1961609e+01 
1.3375351e-01 5.6370503e-01 4.1969833e+01 
-2.6623246e-01 7.0021385e-01 4.1881653e+01 
-3.1132740e-01 9.2410773e-01 4.1853493e+01 
-3.9880505e-01 8.5261923e-01 4.1851868e+01 
4.9827534e-01 2.9925787e-01 4.2137547e+01 
3.4194937e-01 3.8685825e-01 4.2025021e+01 
-4.2648647e-02 7.5191063e-01 4.1859051e+01 
-2.5401810e-01 7.9503769e-01 4.1808533e+01 
1.8480448e-02 5.0547802e-01 4.1877510e+01 
-4.3632126e-01 9.6402287e-01 4.1785946e+01 
-1.5947884e-01 8.4443361e-01 4.1780174e+01 
-1.4089009e-01 6.0172999e-01 4.1793541e+01 
-3.1009343e-01 9.2434150e-01 4.1718426e+01 
-4.0306881e-01 8.5845691e-01 4.1716179e+01 
8.5861288e-02 6.1683756e-01 4.1774368e+01 
-2.6447710e-01 6.9743657e-01 4.1711910e+01 
3.0427080e-01 4.1638452e-01 4.1839512e+01 
2.6751360e-01 3.7833902e-01 4.1830902e+01 
5.1012677e-01 2.9080975e-01 4.1931297e+01 
-3.7014309e-02 7.4967718e-01 4.1691463e+01 
-4.3632072e-01 9.6401966e-01 4.1650398e+01 
2.5847588e-02 4.9913955e-01 4.1707767e+01 
-1.5583332e-01 8.4415752e-01 4.1610870e+01 
-3.8322043e-01 8.2981020e-01 4.1595791e+01 
-3.0884841e-01 9.2456430e-01 4.1582397e+01 
-1.3665022e-01 5.9708190e-01 4.1621960e+01 
9.3565010e-02 6.1167872e-01 4.1605015e+01 
-2.6268822e-01 6.9460052e-01 4.1538593e+01 
-4.3632022e-01 9.6401656e-01 4.1513885e+01 
-3.1243213e-02 7.4732590e-01 4.1520226e+01 
2.7603787e-01 3.7115356e-01 4.1624012e+01 
2.8505871e-01 4.3281260e-01 4.1611507e+01 
5.2195001e-01 2.8233302e-01 4.1725052e+01 
3.3468332e-02 4.9260557e-01 4.1534447e+01 
-3.9853087e-01 8.5081697e-01 4.1443768e+01 
-3.2560509e-01 9.3245691e-01 4.1443577e+01 
-1.5212752e-01 8.4385180e-01 4.1437847e+01 
-1.3227913e-01 5.9230179e-01 4.1446728e+01 
-4.3631971e-01 9.6401358e-01 4.1376381e+01 
[...]
POINT_DATA 6166
FIELD FieldData 5
DISPLACEMENT 3 6166  float
1.5114418e+00 1.3817605e+00 -7.9101883e-02 
1.5025069e+00 1.3727641e+00 -7.8431658e-02 
1.5112488e+00 1.3815436e+00 -8.3790325e-02 
1.5116006e+00 1.3819466e+00 -7.3654555e-02 
1.4978487e+00 1.3680525e+00 -8.2562074e-02 
1.4985588e+00 1.3688154e+00 -7.2611749e-02 
1.4935224e+00 1.3637179e+00 -7.7757664e-02 
1.5111091e+00 1.3813879e+00 -8.6910933e-02 
1.5115870e+00 1.3819360e+00 -7.3031418e-02 
1.5019968e+00 1.3722119e+00 -8.6425401e-02 
1.5021867e+00 1.3724712e+00 -7.2270088e-02 
1.4888355e+00 1.3589767e+00 -8.1990875e-02 
1.4885542e+00 1.3587419e+00 -7.1903348e-02 
1.4927300e+00 1.3628806e+00 -8.5931502e-02 
1.4844875e+00 1.3546209e+00 -7.7079855e-02 
1.5110170e+00 1.3812866e+00 -8.8696294e-02 
1.4926318e+00 1.3628510e+00 -7.1496315e-02 
1.5115042e+00 1.3818455e+00 -7.4523345e-02 
1.4970455e+00 1.3672177e+00 -8.7936930e-02 
1.4971331e+00 1.3673761e+00 -7.3346369e-02 
1.4797713e+00 1.3498499e+00 -8.1416182e-02 
1.4793550e+00 1.3494793e+00 -7.1236238e-02 
1.4833041e+00 1.3533890e+00 -8.5428841e-02 
1.4829177e+00 1.3530704e+00 -7.0709802e-02 
1.4754013e+00 1.3454725e+00 -7.6398186e-02 
1.4876946e+00 1.3578014e+00 -8.7446526e-02 
1.5109768e+00 1.3812453e+00 -8.8886030e-02 
1.4874947e+00 1.3576716e+00 -7.2590403e-02 
1.5113614e+00 1.3816867e+00 -7.7666812e-02 
1.4706554e+00 1.3406709e+00 -8.0837883e-02 
1.4708794e+00 1.3409439e+00 -7.0950113e-02 
1.4737141e+00 1.3437321e+00 -8.4917024e-02 
1.4922296e+00 1.3623675e+00 -8.7795980e-02 
1.4781818e+00 1.3482223e+00 -8.6947188e-02 
1.4730392e+00 1.3431245e+00 -6.9910258e-02 
1.4920957e+00 1.3622874e+00 -7.6464541e-02 
1.5003042e+00 1.3704990e+00 -8.8122837e-02 
1.4776944e+00 1.3478043e+00 -7.1822688e-02 
1.4662631e+00 1.3362716e+00 -7.5712658e-02 
1.5005295e+00 1.3707706e+00 -7.8901023e-02 
1.4837797e+00 1.3538582e+00 -8.7417930e-02 
1.4834037e+00 1.3535386e+00 -7.5214908e-02 
1.5109282e+00 1.3811948e+00 -8.9194134e-02 
1.5111718e+00 1.3814747e+00 -8.2055651e-02 
1.4614871e+00 1.3314395e+00 -8.0256052e-02 
1.4617156e+00 1.3317176e+00 -7.0235565e-02 
1.4639547e+00 1.3339050e+00 -8.4395654e-02 
1.4685023e+00 1.3384752e+00 -8.6438432e-02 
1.4629915e+00 1.3330083e+00 -6.9097154e-02 
1.4677269e+00 1.3377689e+00 -7.1042605e-02 
1.4570718e+00 1.3270178e+00 -7.5022899e-02 
1.4732054e+00 1.3432109e+00 -8.6709045e-02 
1.4724919e+00 1.3425490e+00 -7.5053424e-02 
1.4875922e+00 1.3576952e+00 -8.8066116e-02 
1.5000844e+00 1.3702712e+00 -8.9469105e-02 
1.5001616e+00 1.3703725e+00 -8.4592685e-02 
1.4871917e+00 1.3573231e+00 -8.1618540e-02 
1.4525787e+00 1.3225175e+00 -6.9749102e-02 
1.4522651e+00 1.3221544e+00 -7.9670168e-02 
1.4586506e+00 1.3285551e+00 -8.5919812e-02 
1.4644560e+00 1.3344001e+00 -8.6322524e-02 
1.4540207e+00 1.3239021e+00 -8.3864301e-02 
1.5108254e+00 1.3810833e+00 -9.0934828e-02 
1.5109379e+00 1.3812125e+00 -8.7622151e-02 
1.4575875e+00 1.3275604e+00 -7.0250377e-02 
1.4635007e+00 1.3334993e+00 -7.3762216e-02 
1.4527692e+00 1.3227167e+00 -6.8270698e-02 
1.4478270e+00 1.3177102e+00 -7.4329525e-02 
1.4684199e+00 1.3383896e+00 -8.6946674e-02 
1.4429895e+00 1.3128158e+00 -7.9081126e-02 
1.4432276e+00 1.3131046e+00 -6.8793163e-02 
1.4486216e+00 1.3184566e+00 -8.5390791e-02 
1.4674355e+00 1.3374300e+00 -8.0406994e-02 
1.4439067e+00 1.3137187e+00 -8.3322331e-02 
1.4535037e+00 1.3233726e+00 -8.5578695e-02 
1.4472706e+00 1.3171737e+00 -6.9445550e-02 
1.4423667e+00 1.3122441e+00 -6.7429602e-02 
1.4522098e+00 1.3221284e+00 -7.3603153e-02 
1.4385276e+00 1.3083481e+00 -7.3631831e-02 
1.5105997e+00 1.3808310e+00 -9.6126147e-02 
1.4952700e+00 1.3653940e+00 -9.5246516e-02 
1.4336586e+00 1.3034213e+00 -7.8488067e-02 
1.4339021e+00 1.3037162e+00 -6.8065114e-02 
1.4384097e+00 1.3081747e+00 -8.4850878e-02 
1.4433858e+00 1.3131850e+00 -8.4995724e-02 
1.4429009e+00 1.3127598e+00 -7.2268046e-02 
1.4336067e+00 1.3033488e+00 -8.2769111e-02 
1.4367710e+00 1.3066037e+00 -6.8627819e-02 
1.4291726e+00 1.2989306e+00 -7.2930112e-02 
1.4799404e+00 1.3499573e+00 -9.4366424e-02 
1.4462892e+00 1.3161072e+00 -8.5339211e-02 
1.4317789e+00 1.3015857e+00 -6.6574380e-02 
1.4564327e+00 1.3263122e+00 -8.7702170e-02 
1.4566561e+00 1.3265549e+00 -8.4062859e-02 
1.4469919e+00 1.3168457e+00 -7.9171754e-02 
1.4252146e+00 1.2949735e+00 -6.6874951e-02 
1.4242722e+00 1.2939720e+00 -7.7890374e-02 
1.4330821e+00 1.3028114e+00 -8.4400803e-02 
1.4280089e+00 1.2977035e+00 -8.4299780e-02 
1.4646118e+00 1.3345224e+00 -9.3485370e-02 
1.4231156e+00 1.2927868e+00 -8.2205467e-02 
1.4312072e+00 1.3009845e+00 -7.2112374e-02 
1.4260824e+00 1.2958443e+00 -6.7796022e-02 
1.4197619e+00 1.2894576e+00 -7.2224028e-02 
1.4209996e+00 1.2907350e+00 -6.5704286e-02 
1.4411141e+00 1.3108877e+00 -8.6836189e-02 
1.4236758e+00 1.2933408e+00 -8.3992645e-02 
1.4148289e+00 1.2844669e+00 -7.7289127e-02 
1.4153086e+00 1.2850028e+00 -6.6048011e-02 
1.4174134e+00 1.2870369e+00 -8.3736710e-02 
1.4215606e+00 1.2912772e+00 -7.0729859e-02 
1.4492860e+00 1.3190893e+00 -9.2601821e-02 
1.4279737e+00 1.2976656e+00 -8.4583476e-02 
1.4124266e+00 1.2820266e+00 -8.1629448e-02 
1.4102933e+00 1.2799275e+00 -7.1513385e-02 
1.4151995e+00 1.2848899e+00 -6.6951625e-02 
1.4258189e+00 1.2955294e+00 -7.7914797e-02 
1.4100224e+00 1.2796869e+00 -6.4819165e-02 
1.4053279e+00 1.2749040e+00 -7.6683454e-02 
1.4052347e+00 1.2748629e+00 -6.5384619e-02 
1.4118940e+00 1.2814816e+00 -8.3171695e-02 
1.4066170e+00 1.2761691e+00 -8.3161145e-02 
1.4339609e+00 1.3036587e+00 -9.1717735e-02 
1.4007672e+00 1.2703408e+00 -7.0799239e-02 
1.4094380e+00 1.2790723e+00 -7.0578344e-02 
1.4015337e+00 1.2710627e+00 -8.1040613e-02 
1.4041151e+00 1.2737347e+00 -6.6092171e-02 
1.3988423e+00 1.2684355e+00 -6.3919298e-02 
1.3957697e+00 1.2652845e+00 -7.6073118e-02 
1.3960334e+00 1.2656010e+00 -6.5107778e-02 
1.4021271e+00 1.2716496e+00 -8.2749285e-02 
1.4066097e+00 1.2761594e+00 -8.3334439e-02 
1.3956137e+00 1.2650943e+00 -8.2571790e-02 
1.3994318e+00 1.2690053e+00 -6.9145374e-02 
1.3911842e+00 1.2606970e+00 -7.0081808e-02 
1.4186424e+00 1.2882376e+00 -9.0832725e-02 
1.4038693e+00 1.2734338e+00 -7.6633364e-02 
1.3904313e+00 1.2598896e+00 -8.0438666e-02 
1.3928254e+00 1.2623732e+00 -6.5220445e-02 
1.3866509e+00 1.2561601e+00 -6.4560592e-02 
1.3861536e+00 1.2556093e+00 -7.5460143e-02 
1.3874533e+00 1.2569747e+00 -6.3002639e-02 
1.3898919e+00 1.2593366e+00 -8.1885450e-02 
1.3815420e+00 1.2509954e+00 -6.9359176e-02 
1.3843985e+00 1.2538083e+00 -8.1968769e-02 
1.3868563e+00 1.2563477e+00 -6.9001786e-02 
1.3791122e+00 1.2485000e+00 -7.9823084e-02 
1.3813243e+00 1.2508007e+00 -6.4332180e-02 
1.3951888e+00 1.2646571e+00 -8.4230274e-02 
1.4033312e+00 1.2728268e+00 -8.9946270e-02 
1.3764775e+00 1.2458724e+00 -7.4842736e-02 
1.3767513e+00 1.2461997e+00 -6.3603982e-02 
1.3758479e+00 1.2452989e+00 -6.2069383e-02 
1.3797425e+00 1.2491237e+00 -8.1448555e-02 
1.3844224e+00 1.2538307e+00 -8.2035489e-02 
1.3718401e+00 1.2412345e+00 -6.8633504e-02 
1.3729613e+00 1.2423006e+00 -8.1352644e-02 
1.3764688e+00 1.2459002e+00 -6.7515016e-02 
1.3810970e+00 1.2505180e+00 -7.5328484e-02 
1.3680239e+00 1.2374219e+00 -6.2460922e-02 
1.3761197e+00 1.2455064e+00 -7.5740278e-02 
1.3669581e+00 1.2362987e+00 -7.3540621e-02 
1.3675696e+00 1.2368869e+00 -7.9193376e-02 
1.3696007e+00 1.2390076e+00 -6.3431039e-02 
1.3880266e+00 1.2574222e+00 -8.9055575e-02 
1.3640194e+00 1.2334011e+00 -6.1121374e-02 
1.3620796e+00 1.2314169e+00 -6.7903616e-02 
1.3670217e+00 1.2363260e+00 -8.0539599e-02 
1.3612977e+00 1.2305660e+00 -8.0720648e-02 
1.3575996e+00 1.2269392e+00 -6.1496053e-02 
1.3569483e+00 1.2262263e+00 -7.3592529e-02 
1.3634069e+00 1.2327571e+00 -6.7378916e-02 
1.3557971e+00 1.2250445e+00 -7.8550413e-02 
1.3576499e+00 1.2269882e+00 -6.2512495e-02 
1.3522582e+00 1.2215389e+00 -6.7168534e-02 
1.3727304e+00 1.2420318e+00 -8.8163823e-02 
1.3519609e+00 1.2212740e+00 -6.0155783e-02 
1.3617090e+00 1.2309781e+00 -8.1013441e-02 
1.3552461e+00 1.2244791e+00 -7.9843089e-02 
1.3470913e+00 1.2163150e+00 -7.2961614e-02 
1.3493994e+00 1.2185982e+00 -8.0071822e-02 
1.3526126e+00 1.2219050e+00 -6.5835766e-02 
1.3469479e+00 1.2162285e+00 -6.0704086e-02 
1.3574455e+00 1.2267233e+00 -7.3998310e-02 
1.3437867e+00 1.2129653e+00 -7.7890456e-02 
1.3423731e+00 1.2116003e+00 -6.6428363e-02 
1.3454670e+00 1.2147384e+00 -6.1581772e-02 
1.3454117e+00 1.2145908e+00 -7.9065345e-02 
1.3396666e+00 1.2089139e+00 -5.9174571e-02 
1.3371727e+00 1.2063432e+00 -7.2324529e-02 
1.3374641e+00 1.2066907e+00 -6.0543887e-02 
1.3574506e+00 1.2266629e+00 -8.7270595e-02 
1.3493418e+00 1.2185318e+00 -8.1602596e-02 
1.3372616e+00 1.2063922e+00 -7.9406016e-02 
1.3340039e+00 1.2031827e+00 -6.6720352e-02 
1.3390380e+00 1.2082523e+00 -6.5710425e-02 
1.3324291e+00 1.2016056e+00 -6.5685026e-02 
1.3315341e+00 1.2006477e+00 -7.7210002e-02 
1.3330464e+00 1.2022520e+00 -6.0639050e-02 
1.3271937e+00 1.1963134e+00 -7.1683683e-02 
1.3274416e+00 1.1966184e+00 -5.9923526e-02 
1.3309729e+00 1.2000717e+00 -7.8389972e-02 
1.3271301e+00 1.1963154e+00 -5.8178369e-02 
1.3356563e+00 1.2047739e+00 -7.9990335e-02 
1.3352098e+00 1.2043545e+00 -7.4400812e-02 
1.3421772e+00 1.2112992e+00 -8.6370841e-02 
1.3248789e+00 1.1939440e+00 -7.8721851e-02 
1.3224237e+00 1.1915522e+00 -6.4941190e-02 
1.3264949e+00 1.1956459e+00 -6.4862512e-02 
1.3190329e+00 1.1880826e+00 -7.6514229e-02 
1.3185722e+00 1.1877103e+00 -5.8610927e-02 
1.3171576e+00 1.1862290e+00 -7.1036302e-02 
1.3203782e+00 1.1895243e+00 -5.9675697e-02 
1.3184681e+00 1.1875027e+00 -7.7640347e-02 
1.3143481e+00 1.1834731e+00 -5.7163656e-02 
1.3123633e+00 1.1814423e+00 -6.4193353e-02 
1.3122399e+00 1.1812444e+00 -7.8019507e-02 
1.3199281e+00 1.1889957e+00 -7.3362522e-02 
1.3188368e+00 1.1878699e+00 -7.8532211e-02 
1.3269249e+00 1.1959651e+00 -8.5468955e-02 
1.3137021e+00 1.1827934e+00 -6.4000800e-02 
1.3073655e+00 1.1764472e+00 -5.8213226e-02 
1.3069589e+00 1.1759839e+00 -6.9621362e-02 
1.3062718e+00 1.1752642e+00 -7.5803369e-02 
1.3074600e+00 1.1765491e+00 -5.8701321e-02 
1.3022367e+00 1.1712714e+00 -6.3438229e-02 
1.3075604e+00 1.1765460e+00 -7.6812685e-02 
1.3013088e+00 1.1703784e+00 -5.6133971e-02 
1.2993412e+00 1.1682882e+00 -7.7299133e-02 
1.2968994e+00 1.1658809e+00 -6.9734789e-02 
1.2972044e+00 1.1662471e+00 -5.7427224e-02 
1.3006541e+00 1.1696899e+00 -6.3128822e-02 
1.3053838e+00 1.1743832e+00 -7.2866701e-02 
1.3116964e+00 1.1806612e+00 -8.4565915e-02 
1.2932482e+00 1.1621848e+00 -7.5073652e-02 
1.3028659e+00 1.1718248e+00 -7.7980712e-02 
1.2920464e+00 1.1610434e+00 -6.2675729e-02 
1.2942816e+00 1.1633184e+00 -5.7711326e-02 
1.2941251e+00 1.1630552e+00 -7.5966351e-02 
1.2866732e+00 1.1556178e+00 -6.9074638e-02 
1.2869823e+00 1.1559920e+00 -5.6637425e-02 
1.2880063e+00 1.1570263e+00 -5.5085357e-02 
1.2861724e+00 1.1550667e+00 -7.6560207e-02 
1.2873424e+00 1.1563284e+00 -6.2245231e-02 
1.2817932e+00 1.1507574e+00 -6.1914105e-02 
1.2908320e+00 1.1597768e+00 -7.1425244e-02 
1.2964939e+00 1.1653907e+00 -8.3658382e-02 
1.2799492e+00 1.1488366e+00 -7.4325092e-02 
1.2808341e+00 1.1498252e+00 -5.6705240e-02 
1.2881085e+00 1.1570083e+00 -7.7221870e-02 
1.2763851e+00 1.1452942e+00 -6.8409406e-02 
1.2766998e+00 1.1456758e+00 -5.5845052e-02 
1.2801288e+00 1.1490079e+00 -7.5114496e-02 
1.2744300e+00 1.1434088e+00 -5.4018777e-02 
1.2714784e+00 1.1404089e+00 -6.1151609e-02 
1.2727232e+00 1.1415725e+00 -7.5801037e-02 
1.2737570e+00 1.1426991e+00 -6.1349794e-02 
1.2660369e+00 1.1349151e+00 -6.7741312e-02 
1.2663536e+00 1.1352966e+00 -5.5045761e-02 
1.2663653e+00 1.1352122e+00 -7.3558979e-02 
1.2813196e+00 1.1501561e+00 -8.2746960e-02 
1.2671087e+00 1.1360619e+00 -5.5683240e-02 
1.2736554e+00 1.1425444e+00 -6.9816023e-02 
1.2734703e+00 1.1423173e+00 -7.6491669e-02 
1.2610985e+00 1.1300011e+00 -6.0379226e-02 
1.2659044e+00 1.1347390e+00 -7.4244186e-02 
1.2605721e+00 1.1295171e+00 -5.2936994e-02 
1.2589878e+00 1.1277984e+00 -7.5018480e-02 
1.2619635e+00 1.1308678e+00 -6.1545052e-02 
1.2556174e+00 1.1244712e+00 -6.7068391e-02 
1.2559427e+00 1.1248657e+00 -5.4252710e-02 
1.2524911e+00 1.1213039e+00 -7.2768770e-02 
1.2661711e+00 1.1349542e+00 -8.1844069e-02 
1.2506549e+00 1.1195397e+00 -5.9614785e-02 
1.2531013e+00 1.1220229e+00 -5.4645367e-02 
1.2586195e+00 1.1274230e+00 -7.5559720e-02 
1.2571554e+00 1.1259903e+00 -6.9912858e-02 
1.2516307e+00 1.1204282e+00 -7.3374644e-02 
1.2451402e+00 1.1139754e+00 -6.6397339e-02 
1.2454641e+00 1.1143717e+00 -5.3452861e-02 
1.2464304e+00 1.1153476e+00 -5.1832091e-02 
1.2449583e+00 1.1137383e+00 -7.4213155e-02 
1.2478070e+00 1.1166763e+00 -6.1273534e-02 
1.2401440e+00 1.1090114e+00 -5.8842428e-02 
1.2383248e+00 1.1071086e+00 -7.1957231e-02 
1.2382832e+00 1.1071388e+00 -5.9983399e-02 
1.2510554e+00 1.1198001e+00 -8.0935739e-02 
1.2388023e+00 1.1077007e+00 -5.3591710e-02 
1.2439319e+00 1.1127013e+00 -7.4418254e-02 
1.2345964e+00 1.1034160e+00 -6.5709859e-02 
1.2349205e+00 1.1038103e+00 -5.2645676e-02 
1.2372339e+00 1.1060041e+00 -7.2516680e-02 
1.2421386e+00 1.1109370e+00 -6.9473915e-02 
1.2319897e+00 1.1008887e+00 -5.0714359e-02 
1.2295710e+00 1.0984235e+00 -5.8059033e-02 
1.2306240e+00 1.0993818e+00 -7.3387109e-02 
1.2331426e+00 1.1019922e+00 -6.0411777e-02 
1.2239832e+00 1.0927911e+00 -6.5026864e-02 
1.2243191e+00 1.0931989e+00 -5.1840272e-02 
1.2238363e+00 1.0926082e+00 -7.1120031e-02 
1.2359641e+00 1.1046766e+00 -8.0025867e-02 
1.2242007e+00 1.0930861e+00 -5.2523289e-02 
1.2291734e+00 1.0979187e+00 -7.3483020e-02 
1.2189296e+00 1.0877775e+00 -5.7281528e-02 
1.2226462e+00 1.0914017e+00 -7.1632840e-02 
1.2274148e+00 1.0961889e+00 -6.9234036e-02 
1.2165157e+00 1.0853391e+00 -6.1904278e-02 
1.2172419e+00 1.0861356e+00 -4.9570344e-02 
1.2159728e+00 1.0847204e+00 -7.2534233e-02 
1.2133070e+00 1.0821164e+00 -6.4340234e-02 
1.2179968e+00 1.0868351e+00 -5.9817612e-02 
1.2123649e+00 1.0812469e+00 -5.0397027e-02 
1.2090352e+00 1.0778019e+00 -7.0264921e-02 
1.2082183e+00 1.0770695e+00 -5.6495927e-02 
1.2209176e+00 1.0896149e+00 -7.9111263e-02 
1.2093244e+00 1.0782053e+00 -5.2218515e-02 
1.2139177e+00 1.0826586e+00 -7.2357155e-02 
1.2083327e+00 1.0770806e+00 -7.0853934e-02 
1.2131634e+00 1.0819229e+00 -6.9735795e-02 
1.2025971e+00 1.0714109e+00 -6.3602291e-02 
1.2029356e+00 1.0718207e+00 -5.0233170e-02 
1.2021790e+00 1.0710759e+00 -4.8411567e-02 
1.2010674e+00 1.0698186e+00 -7.1657345e-02 
1.1975174e+00 1.0663732e+00 -5.5716261e-02 
1.1999432e+00 1.0687833e+00 -5.8827203e-02 
1.1940273e+00 1.0628047e+00 -6.9393121e-02 
1.2059237e+00 1.0746200e+00 -7.8189433e-02 
1.1919308e+00 1.0607481e+00 -6.2835820e-02 
1.1922749e+00 1.0611643e+00 -4.9461823e-02 
1.1942674e+00 1.0631616e+00 -5.0229467e-02 
1.1981893e+00 1.0669527e+00 -6.8830527e-02 
1.1956558e+00 1.0644031e+00 -7.1305744e-02 
1.1907632e+00 1.0595266e+00 -6.9759108e-02 
1.1868882e+00 1.0557513e+00 -5.4946970e-02 
1.1871847e+00 1.0560942e+00 -4.7253866e-02 
1.1861894e+00 1.0549531e+00 -7.0795372e-02 
1.1860220e+00 1.0548946e+00 -5.5209246e-02 
1.1813436e+00 1.0501734e+00 -6.2069111e-02 
1.1811057e+00 1.0500088e+00 -4.8045620e-02 
1.1792661e+00 1.0480568e+00 -6.8531334e-02 
1.1909633e+00 1.0596708e+00 -7.7269047e-02 
1.1793845e+00 1.0483013e+00 -4.9012739e-02 
1.1763327e+00 1.0452118e+00 -5.4177612e-02 
1.1782010e+00 1.0469760e+00 -6.9086187e-02 
1.1820716e+00 1.0508823e+00 -6.4045198e-02 
1.1830944e+00 1.0518520e+00 -7.1811095e-02 
1.1771199e+00 1.0458972e+00 -6.8985999e-02 
1.1724122e+00 1.0413465e+00 -4.6128973e-02 
1.1708212e+00 1.0396707e+00 -6.1304186e-02 
1.1711679e+00 1.0400878e+00 -4.7942501e-02 
1.1715565e+00 1.0403345e+00 -6.9935687e-02 
1.1712662e+00 1.0401658e+00 -5.3854026e-02 
1.1658525e+00 1.0347563e+00 -5.3420573e-02 
1.1647483e+00 1.0335617e+00 -6.7669809e-02 
1.1760441e+00 1.0447745e+00 -7.6365821e-02 
1.1647301e+00 1.0336785e+00 -4.7825973e-02 
1.1619313e+00 1.0308799e+00 -4.6492077e-02 
1.1603868e+00 1.0292612e+00 -6.0540933e-02 
1.1636990e+00 1.0324939e+00 -6.8248391e-02 
1.1681973e+00 1.0369765e+00 -7.0908129e-02 
1.1683388e+00 1.0371429e+00 -6.7021728e-02 
1.1578665e+00 1.0268347e+00 -4.5026343e-02 
1.1629130e+00 1.0317724e+00 -5.9979398e-02 
1.1571620e+00 1.0259719e+00 -6.9082819e-02 
1.1554561e+00 1.0243815e+00 -5.2666530e-02 
1.1601676e+00 1.0289711e+00 -6.7933016e-02 
1.1567397e+00 1.0256772e+00 -5.2532915e-02 
1.1500211e+00 1.0189191e+00 -5.9787780e-02 
1.1504642e+00 1.0193175e+00 -6.6823825e-02 
1.1611435e+00 1.0298958e+00 -7.5434208e-02 
1.1503004e+00 1.0192919e+00 -4.6666723e-02 
1.1484956e+00 1.0174820e+00 -4.5364834e-02 
1.1494362e+00 1.0182711e+00 -6.7422360e-02 
1.1451191e+00 1.0140830e+00 -5.1923841e-02 
1.1533253e+00 1.0221267e+00 -7.0002086e-02 
1.1534617e+00 1.0222894e+00 -6.6118456e-02 
1.1435404e+00 1.0125604e+00 -4.3945473e-02 
1.1430031e+00 1.0118594e+00 -6.8238713e-02 
1.1397251e+00 1.0086652e+00 -5.9030622e-02 
1.1400729e+00 1.0090820e+00 -4.5723628e-02 
1.1456586e+00 1.0145785e+00 -5.7773996e-02 
1.1453458e+00 1.0141910e+00 -6.6996075e-02 
1.1424367e+00 1.0114267e+00 -5.1245838e-02 
1.1378363e+00 1.0068275e+00 -5.1379859e-02 
1.1364198e+00 1.0053263e+00 -6.5982774e-02 
1.1348648e+00 1.0038676e+00 -5.1189821e-02 
1.1462917e+00 1.0150753e+00 -7.4504890e-02 
1.1348189e+00 1.0038680e+00 -4.3530747e-02 
1.1360948e+00 1.0051403e+00 -4.5537576e-02 
1.1354114e+00 1.0042964e+00 -6.6607021e-02 
1.1385132e+00 1.0073650e+00 -6.9092296e-02 
1.1386429e+00 1.0075241e+00 -6.5217249e-02 
1.1295135e+00 9.9850303e-01 -5.8279686e-02 
1.1298485e+00 9.9890596e-01 -4.5004118e-02 
1.1292430e+00 9.9825007e-01 -5.4270502e-02 
1.1294292e+00 9.9851221e-01 -4.2897575e-02 
1.1293539e+00 9.9835014e-01 -5.6150176e-02 
1.1290888e+00 9.9799883e-01 -6.7396268e-02 
1.1308805e+00 9.9986893e-01 -5.6903824e-02 
1.1305817e+00 9.9948913e-01 -6.6058420e-02 
1.1283612e+00 9.9741465e-01 -5.0002009e-02 
1.1246909e+00 9.9374443e-01 -5.0453879e-02 
1.1246392e+00 9.9374020e-01 -4.2818818e-02 
1.1226088e+00 9.9157941e-01 -6.5134890e-02 
1.1207367e+00 9.8983938e-01 -4.4858899e-02 
1.1220978e+00 9.9121749e-01 -4.4429448e-02 
1.1314991e+00 1.0003407e+00 -7.3573813e-02 
1.1205906e+00 9.8966485e-01 -5.0226346e-02 
1.1193784e+00 9.8841602e-01 -5.7531137e-02 
1.1216285e+00 9.9058139e-01 -6.5813117e-02 
1.1237593e+00 9.9268430e-01 -6.8182915e-02 
1.1238835e+00 9.9283981e-01 -6.4316593e-02 
1.1145973e+00 9.8370761e-01 -4.9739473e-02 
1.1155444e+00 9.8470730e-01 -4.1869182e-02 
1.1153866e+00 9.8437297e-01 -6.6561125e-02 
1.1144978e+00 9.8363203e-01 -4.8761211e-02 
1.1161591e+00 9.8522073e-01 -5.6050584e-02 
1.1158726e+00 9.8485702e-01 -6.5134034e-02 
1.1093264e+00 9.7842360e-01 -5.6797177e-02 
1.1100861e+00 9.7922444e-01 -5.0058637e-02 
1.1096562e+00 9.7883230e-01 -4.3598205e-02 
1.1090207e+00 9.7806621e-01 -6.4311124e-02 
1.1083206e+00 9.7751904e-01 -4.3350324e-02 
1.1167692e+00 9.8568577e-01 -7.2638728e-02 
1.1080635e+00 9.7709125e-01 -6.5012708e-02 
1.1045775e+00 9.7375315e-01 -4.9021158e-02 
1.1045252e+00 9.7374785e-01 -4.1392017e-02 
1.1019756e+00 9.7112274e-01 -5.4995008e-02 
1.1019270e+00 9.7099102e-01 -6.5736555e-02 
1.1018640e+00 9.7111326e-01 -4.0865812e-02 
1.1090684e+00 9.7807395e-01 -6.7271061e-02 
1.1091875e+00 9.7822481e-01 -6.3412808e-02 
1.1004624e+00 9.6966130e-01 -4.9345817e-02 
1.0999502e+00 9.6912926e-01 -5.3348821e-02 
1.0993388e+00 9.6850592e-01 -5.6063943e-02 
1.0996722e+00 9.6891940e-01 -4.2901352e-02 
1.1008400e+00 9.7006679e-01 -4.7563668e-02 
1.1014897e+00 9.7064841e-01 -5.5182640e-02 
1.1012143e+00 9.7029263e-01 -6.4201787e-02 
1.0956614e+00 9.6479535e-01 -6.3487746e-02 
1.0946292e+00 9.6388203e-01 -4.8316699e-02 
1.0945792e+00 9.6387917e-01 -4.0699460e-02 
1.0947649e+00 9.6406740e-01 -4.2303693e-02 
1.0947137e+00 9.6382898e-01 -6.4240396e-02 
1.1020960e+00 9.7109914e-01 -7.1700871e-02 
1.0894275e+00 9.5867157e-01 -5.5337660e-02 
1.0897672e+00 9.5909047e-01 -4.2213906e-02 
1.0888281e+00 9.5809323e-01 -5.1842988e-02 
1.0886829e+00 9.5784450e-01 -6.4921036e-02 
1.0883924e+00 9.5774710e-01 -3.9871026e-02 
1.0944256e+00 9.6352696e-01 -6.6356525e-02 
1.0945407e+00 9.6367443e-01 -6.2507965e-02 
1.0847542e+00 9.5408571e-01 -4.7629166e-02 