# vtk DataFile Version 4.0
vtk output
ASCII
DATASET UNSTRUCTURED_GRID
POINTS 6166 float
-4.3633327e-01 9.6409470e-01 4.4200001e+01 
-4.3633261e-01 9.6409082e-01 4.4079685e+01 
-3.2145375e-01 9.1276109e-01 4.4200001e+01 
-3.8566181e-01 8.4097892e-01 4.4200001e+01 
-3.3069235e-01 9.1895354e-01 4.4019413e+01 
-3.8473952e-01 8.3919770e-01 4.4024357e+01 
-4.3633196e-01 9.6408689e-01 4.3958702e+01 
-2.1293370e-01 8.4677851e-01 4.4200001e+01 
-2.9042658e-01 7.3813015e-01 4.4200001e+01 
-2.1019450e-01 8.4669626e-01 4.4077393e+01 
-2.8909999e-01 7.3605996e-01 4.4073399e+01 
-3.2963324e-01 9.1929907e-01 4.3898094e+01 
-3.8679782e-01 8.4179753e-01 4.3889645e+01 
-2.0740938e-01 8.4661204e-01 4.3952713e+01 
-4.3633130e-01 9.6408290e-01 4.3837040e+01 
-1.1677200e-01 7.7521002e-01 4.4200001e+01 
-2.8775173e-01 7.3395580e-01 4.3944717e+01 
-1.9365783e-01 6.6203654e-01 4.4200001e+01 
-1.1309985e-01 7.7540898e-01 4.4012005e+01 
-1.9181472e-01 6.5888047e-01 4.4006447e+01 
-3.2856464e-01 9.1964108e-01 4.3776085e+01 
-3.8823184e-01 8.4352189e-01 4.3765770e+01 
-2.0457739e-01 8.4652513e-01 4.3825886e+01 
-2.8638119e-01 7.3181647e-01 4.3813885e+01 
-4.3633065e-01 9.6407896e-01 4.3714680e+01 
-1.0911675e-01 7.7426714e-01 4.3886200e+01 
-2.1001574e-02 6.8269837e-01 4.4200001e+01 
-1.8902887e-01 6.5566909e-01 4.3876659e+01 
-7.8887597e-02 5.9015810e-01 4.4200001e+01 
-3.2748649e-01 9.1997939e-01 4.3653378e+01 
-3.9889076e-01 8.5876143e-01 4.3651733e+01 
-2.0169757e-01 8.4643483e-01 4.3696846e+01 
-7.2496021e-03 6.7325598e-01 4.3947758e+01 
-1.0504345e-01 7.7307969e-01 4.3758209e+01 
-2.8498772e-01 7.2964084e-01 4.3680840e+01 
-6.3224643e-02 5.7783771e-01 4.3940754e+01 
3.5808440e-02 6.2679136e-01 4.4056572e+01 
-1.8616955e-01 6.5238589e-01 4.3744686e+01 
-4.3632996e-01 9.6407503e-01 4.3591618e+01 
-9.8678423e-03 5.4892725e-01 4.4055367e+01 
-1.8652271e-02 6.8798620e-01 4.3834026e+01 
-7.9845116e-02 5.8636194e-01 4.3823372e+01 
8.7777540e-02 5.7885915e-01 4.4200001e+01 
5.3622175e-02 5.1732427e-01 4.4200001e+01 
-3.2639861e-01 9.2031354e-01 4.3529953e+01 
-3.9894739e-01 8.5844576e-01 4.3528313e+01 
-1.9876897e-01 8.4634024e-01 4.3565521e+01 
-1.0087753e-01 7.7184403e-01 4.3627972e+01 
-2.8357074e-01 7.2742778e-01 4.3545506e+01 
-1.8323407e-01 6.4902818e-01 4.3610458e+01 
-4.3632931e-01 9.6407109e-01 4.3467831e+01 
3.1033519e-03 6.6751039e-01 4.3691772e+01 
-5.3600248e-02 5.6906003e-01 4.3676846e+01 
1.2436585e-01 5.5082864e-01 4.3886215e+01 
1.7079005e-01 5.1095647e-01 4.4054855e+01 
1.4951277e-01 4.6697062e-01 4.4053665e+01 
1.0028158e-01 4.8915190e-01 4.3877911e+01 
-4.0513036e-01 8.6722642e-01 4.3405304e+01 
-3.2530096e-01 9.2064321e-01 4.3405800e+01 
-9.6616447e-02 7.7055699e-01 4.3495411e+01 
-8.4563000e-03 6.8258613e-01 4.3574005e+01 
-1.9579062e-01 8.4624058e-01 4.3431831e+01 
2.1753120e-01 4.7335833e-01 4.4200001e+01 
2.0360756e-01 4.4289169e-01 4.4200001e+01 
-1.8021962e-01 6.4559317e-01 4.3473904e+01 
-7.0636064e-02 5.7773441e-01 4.3555408e+01 
-2.8212959e-01 7.2517604e-01 4.3407806e+01 
-4.3632865e-01 9.6406716e-01 4.3343307e+01 
1.3810426e-01 5.4143524e-01 4.3628246e+01 
-3.2419339e-01 9.2096806e-01 4.3280907e+01 
-3.9903235e-01 8.5775709e-01 4.3279266e+01 
-9.2257597e-02 7.6921552e-01 4.3360443e+01 
1.1508528e-01 4.7804743e-01 4.3612068e+01 
-1.9276154e-01 8.4613472e-01 4.3295704e+01 
1.4013666e-02 6.6131532e-01 4.3426643e+01 
-1.7712323e-01 6.4207786e-01 4.3334946e+01 
-2.8066361e-01 7.2288430e-01 4.3267666e+01 
-4.3382257e-02 5.5983055e-01 4.3403778e+01 
-4.3632799e-01 9.6406323e-01 4.3218033e+01 
3.7877345e-01 3.8273901e-01 4.4200001e+01 
3.9076596e-01 3.7443376e-01 4.3993755e+01 
-3.2307580e-01 9.2128778e-01 4.3155251e+01 
-3.9906058e-01 8.5738426e-01 4.3153610e+01 
-8.7798268e-02 7.6781619e-01 4.3222996e+01 
1.9689407e-02 6.5803534e-01 4.3290459e+01 
-6.0862999e-02 5.6866169e-01 4.3278019e+01 
-1.8968078e-01 8.4602165e-01 4.3157055e+01 
-1.7394182e-01 6.3847917e-01 4.3193501e+01 
-4.3632734e-01 9.6405929e-01 4.3091995e+01 
4.0275589e-01 3.6612594e-01 4.3787510e+01 
1.2304078e-01 5.5709994e-01 4.3330139e+01 
-2.7917209e-01 7.2055119e-01 4.3125000e+01 
2.5336364e-01 4.4907436e-01 4.3468094e+01 
2.3670304e-01 4.1684708e-01 4.3469433e+01 
1.3086085e-01 4.6634668e-01 4.3336948e+01 
-3.8351217e-01 8.3473074e-01 4.3036392e+01 
-3.2194808e-01 9.2160189e-01 4.3028820e+01 
2.5518833e-02 6.5462554e-01 4.3151749e+01 
-8.3235659e-02 7.6635528e-01 4.3082981e+01 
4.1474071e-01 3.5781288e-01 4.3581264e+01 
-1.8654740e-01 8.4590012e-01 4.3015797e+01 
-3.2522827e-02 5.5011308e-01 4.3120937e+01 
-1.7067213e-01 6.3479382e-01 4.3049488e+01 
-4.3632668e-01 9.6405542e-01 4.2965172e+01 
-2.7765438e-01 7.1817529e-01 4.2979721e+01 
2.6620242e-01 4.4011977e-01 4.3261948e+01 
1.3584816e-02 6.7044950e-01 4.3025066e+01 
-3.2081014e-01 9.2191011e-01 4.2901604e+01 
-3.8160574e-01 8.3169121e-01 4.2902863e+01 
-7.8566879e-02 7.6482886e-01 4.2940315e+01 
-5.0480481e-02 5.5910730e-01 4.2990566e+01 
4.2671782e-01 3.4949207e-01 4.3375019e+01 
1.6821145e-01 5.2049083e-01 4.3083881e+01 
-1.8336046e-01 8.4576881e-01 4.2871841e+01 
-4.3632606e-01 9.6405160e-01 4.2837555e+01 
-1.6731077e-01 6.3101834e-01 4.2902817e+01 
1.4768846e-01 4.5400122e-01 4.3051926e+01 
-2.7610970e-01 7.1575516e-01 4.2831745e+01 
-3.1966189e-01 9.2221189e-01 4.2773579e+01 
-3.8560396e-01 8.3684862e-01 4.2767078e+01 
3.7660085e-02 6.4738947e-01 4.2866421e+01 
-7.3788933e-02 7.6323271e-01 4.2794899e+01 
4.3868470e-01 3.4116083e-01 4.3168777e+01 
-4.3632543e-01 9.6404779e-01 4.2709122e+01 
-2.0968946e-02 5.3986710e-01 4.2827656e+01 
-1.8011902e-01 8.4562629e-01 4.2725094e+01 
-1.6385415e-01 6.2714905e-01 4.2753403e+01 
-2.7453732e-01 7.1328926e-01 4.2680973e+01 
-3.1850323e-01 9.2250693e-01 4.2644733e+01 
-3.9907700e-01 8.5570478e-01 4.2643101e+01 
2.5504474e-02 6.6361672e-01 4.2734810e+01 
1.8471870e-01 5.0880390e-01 4.2796177e+01 
-6.8898737e-02 7.6156229e-01 4.2646645e+01 
-3.9438177e-02 5.4903054e-01 4.2692345e+01 
-4.3632481e-01 9.6404403e-01 4.2579861e+01 
4.5063871e-01 3.3281663e-01 4.2962532e+01 
1.6565691e-01 4.4095638e-01 4.2756321e+01 
-1.7682223e-01 8.4547096e-01 4.2575459e+01 
-1.6029853e-01 6.2318206e-01 4.2601143e+01 
-4.0415615e-01 8.6278629e-01 4.2516582e+01 
-3.1733403e-01 9.2279470e-01 4.2515053e+01 
-2.7293649e-01 7.1077597e-01 4.2527313e+01 
5.0482783e-02 6.3954860e-01 4.2569923e+01 
-4.3632418e-01 9.6404034e-01 4.2449757e+01 
-6.3893095e-02 7.5981271e-01 4.2495445e+01 
-8.6617703e-03 5.2904755e-01 4.2523201e+01 
-1.7346917e-01 8.4530097e-01 4.2422829e+01 
-1.5663996e-01 6.1911333e-01 4.2445942e+01 
3.0435190e-01 4.1341871e-01 4.2643494e+01 
4.6257737e-01 3.2445681e-01 4.2756287e+01 
-3.1615424e-01 9.2307472e-01 4.2384518e+01 
-3.9902648e-01 8.5475212e-01 4.2382885e+01 
-2.7130640e-01 7.0821363e-01 4.2370659e+01 
3.8079392e-02 6.5619886e-01 4.2433029e+01 
2.0230262e-01 4.9620378e-01 4.2497147e+01 
-4.3632355e-01 9.6403670e-01 4.2318787e+01 
-5.8768708e-02 7.5797862e-01 4.2341198e+01 
-2.7680276e-02 5.3838593e-01 4.2382599e+01 
1.8486446e-01 4.2715022e-01 4.2449394e+01 
-3.8436696e-01 8.3356136e-01 4.2264896e+01 
8.9545198e-02 5.3233254e-01 4.2382050e+01 
-3.3225983e-01 9.3122375e-01 4.2255634e+01 
-1.7005907e-01 8.4511453e-01 4.2267101e+01 
-1.5287429e-01 6.1493850e-01 4.2287693e+01 
4.7449806e-01 3.1607881e-01 4.2550037e+01 
-2.6964626e-01 7.0560038e-01 4.2210907e+01 
-4.3632296e-01 9.6403313e-01 4.2186939e+01 
6.4036883e-02 6.3103610e-01 4.2261456e+01 
-5.3522192e-02 7.5605446e-01 4.2183796e+01 
-3.7873057e-01 8.2541841e-01 4.2124020e+01 
-3.1376252e-01 9.2360973e-01 4.2120819e+01 
4.4639236e-03 5.1760370e-01 4.2206776e+01 
-1.6659111e-01 8.4490943e-01 4.2108162e+01 
-1.4899719e-01 6.1065292e-01 4.2126286e+01 
-4.3632239e-01 9.6402961e-01 4.2054195e+01 
4.8639825e-01 3.0768004e-01 4.2343792e+01 
-2.6795524e-01 7.0293444e-01 4.2047943e+01 
2.4746621e-01 4.6040925e-01 4.2191032e+01 
7.1105182e-02 6.2650448e-01 4.2102463e+01 
-3.1255043e-01 9.2386365e-01 4.1987617e+01 
-4.8150036e-02 7.5403398e-01 4.2023121e+01 
-1.5144684e-02 5.2712250e-01 4.2060505e+01 
-3.7995064e-01 8.2661813e-01 4.1980038e+01 
2.0541981e-01 4.1251117e-01 4.2130333e+01 
-1.6306458e-01 8.4468329e-01 4.1945896e+01 
-4.3632182e-01 9.6402621e-01 4.1920536e+01 
-1.4500406e-01 6.0625184e-01 4.1961609e+01 
1.3375351e-01 5.6370503e-01 4.1969833e+01 
-2.6623246e-01 7.0021385e-01 4.1881653e+01 
-3.1132740e-01 9.2410773e-01 4.1853493e+01 
-3.9880505e-01 8.5261923e-01 4.1851868e+01 
4.9827534e-01 2.9925787e-01 4.2137547e+01 
3.4194937e-01 3.8685825e-01 4.2025021e+01 
-4.2648647e-02 7.5191063e-01 4.1859051e+01 
-2.5401810e-01 7.9503769e-01 4.1808533e+01 
1.8480448e-02 5.0547802e-01 4.1877510e+01 
-4.3632126e-01 9.6402287e-01 4.1785946e+01 
-1.5947884e-01 8.4443361e-01 4.1780174e+01 
-1.4089009e-01 6.0172999e-01 4.1793541e+01 
-3.1009343e-01 9.2434150e-01 4.1718426e+01 
-4.0306881e-01 8.5845691e-01 4.1716179e+01 
8.5861288e-02 6.1683756e-01 4.1774368e+01 
-2.6447710e-01 6.9743657e-01 4.1711910e+01 
3.0427080e-01 4.1638452e-01 4.1839512e+01 
2.6751360e-01 3.7833902e-01 4.1830902e+01 
5.1012677e-01 2.9080975e-01 4.1931297e+01 
-3.7014309e-02 7.4967718e-01 4.1691463e+01 
-4.3632072e-01 9.6401966e-01 4.1650398e+01 
2.5847588e-02 4.9913955e-01 4.1707767e+01 
-1.5583332e-01 8.4415752e-01 4.1610870e+01 
-3.8322043e-01 8.2981020e-01 4.1595791e+01 
-3.0884841e-01 9.2456430e-01 4.1582397e+01 
-1.3665022e-01 5.9708190e-01 4.1621960e+01 
9.3565010e-02 6.1167872e-01 4.1605015e+01 
-2.6268822e-01 6.9460052e-01 4.1538593e+01 
-4.3632022e-01 9.6401656e-01 4.1513885e+01 
-3.1243213e-02 7.4732590e-01 4.1520226e+01 
2.7603787e-01 3.7115356e-01 4.1624012e+01 
2.8505871e-01 4.3281260e-01 4.1611507e+01 
5.2195001e-01 2.8233302e-01 4.1725052e+01 
3.3468332e-02 4.9260557e-01 4.1534447e+01 
-3.9853087e-01 8.5081697e-01 4.1443768e+01 
-3.2560509e-01 9.3245691e-01 4.1443577e+01 
-1.5212752e-01 8.4385180e-01 4.1437847e+01 
-1.3227913e-01 5.9230179e-01 4.1446728e+01 
-4.3631971e-01 9.6401358e-01 4.1376381e+01 
[...]
POINT_DATA 6166
FIELD FieldData 5
DISPLACEMENT 3 6166  float
-8.1514794e-01 -7.4503499e-01 -2.3348395e-02 
-8.1018418e-01 -7.4004227e-01 -2.3142353e-02 
-8.1512022e-01 -7.4490607e-01 -2.0728106e-02 
-8.1488943e-01 -7.4489158e-01 -2.6355321e-02 
-8.0767733e-01 -7.3742449e-01 -2.0543858e-02 
-8.0763960e-01 -7.3760068e-01 -2.6090004e-02 
-8.0519283e-01 -7.3502177e-01 -2.2935200e-02 
-8.1505120e-01 -7.4476922e-01 -1.8977538e-02 
-8.1471866e-01 -7.4473274e-01 -2.6681075e-02 
-8.0999517e-01 -7.3967934e-01 -1.8657653e-02 
-8.0949169e-01 -7.3947638e-01 -2.6495069e-02 
-8.0267388e-01 -7.3238951e-01 -2.0277932e-02 
-8.0208659e-01 -7.3201430e-01 -2.5836481e-02 
-8.0485350e-01 -7.3450327e-01 -1.8332431e-02 
-8.0017346e-01 -7.2997302e-01 -2.2726910e-02 
-8.1495792e-01 -7.4463660e-01 -1.7969074e-02 
-8.0417883e-01 -7.3413366e-01 -2.6305972e-02 
-8.1461477e-01 -7.4459583e-01 -2.5834996e-02 
-8.0720580e-01 -7.3683286e-01 -1.7486947e-02 
-8.0662358e-01 -7.3655993e-01 -2.5557879e-02 
-7.9764205e-01 -7.2732615e-01 -2.0010663e-02 
-7.9697907e-01 -7.2687638e-01 -2.5611982e-02 
-7.9962337e-01 -7.2923827e-01 -1.8001774e-02 
-7.9877740e-01 -7.2870183e-01 -2.6113648e-02 
-7.9512554e-01 -7.2489566e-01 -2.2517456e-02 
-8.0201614e-01 -7.3160839e-01 -1.7154144e-02 
-8.1481290e-01 -7.4448615e-01 -1.7844493e-02 
-8.0126351e-01 -7.3116928e-01 -2.5353312e-02 
-8.1453651e-01 -7.4444920e-01 -2.4070464e-02 
-7.9258150e-01 -7.2223383e-01 -1.9742066e-02 
-7.9230291e-01 -7.2216541e-01 -2.5225598e-02 
-7.9430217e-01 -7.2388166e-01 -1.7665602e-02 
-8.0439514e-01 -7.3400062e-01 -1.7235216e-02 
-7.9673660e-01 -7.2629350e-01 -1.6815856e-02 
-7.9328465e-01 -7.2317827e-01 -2.5917955e-02 
-8.0382442e-01 -7.3366916e-01 -2.3489330e-02 
-8.0880719e-01 -7.3844427e-01 -1.7567493e-02 
-7.9581350e-01 -7.2568810e-01 -2.5144808e-02 
-7.9004860e-01 -7.1978909e-01 -2.2306789e-02 
-8.0852735e-01 -7.3836076e-01 -2.2678800e-02 
-7.9972965e-01 -7.2930241e-01 -1.6901284e-02 
-7.9898846e-01 -7.2881782e-01 -2.3621690e-02 
-8.1465113e-01 -7.4431634e-01 -1.7651696e-02 
-8.1447101e-01 -7.4428856e-01 -2.1612514e-02 
-7.8749174e-01 -7.1711236e-01 -1.9472053e-02 
-7.8721058e-01 -7.1704406e-01 -2.5029331e-02 
-7.8888690e-01 -7.1843052e-01 -1.7323831e-02 
-7.9136437e-01 -7.2088540e-01 -1.6472021e-02 
-7.8769773e-01 -7.1755999e-01 -2.5718868e-02 
-7.9027057e-01 -7.2011364e-01 -2.4932377e-02 
-7.8494209e-01 -7.1465319e-01 -2.2095092e-02 
-7.9382944e-01 -7.2336596e-01 -1.6607041e-02 
-7.9292363e-01 -7.2270358e-01 -2.3002781e-02 
-8.0166829e-01 -7.3124397e-01 -1.6763484e-02 
-8.0856746e-01 -7.3817331e-01 -1.6786048e-02 
-8.0839229e-01 -7.3810178e-01 -1.9485602e-02 
-8.0115390e-01 -7.3086411e-01 -2.0299667e-02 
-7.8215301e-01 -7.1195292e-01 -2.4710186e-02 
-7.8237212e-01 -7.1196097e-01 -1.9200915e-02 
-7.8589660e-01 -7.1538121e-01 -1.6122594e-02 
-7.8899843e-01 -7.1850115e-01 -1.6258566e-02 
-7.8337467e-01 -7.1288186e-01 -1.6976379e-02 
-8.1450313e-01 -7.4412954e-01 -1.6661104e-02 
-8.1441653e-01 -7.4411356e-01 -1.8498728e-02 
-7.8463197e-01 -7.1444297e-01 -2.4715614e-02 
-7.8792113e-01 -7.1768522e-01 -2.3138961e-02 
-7.8201383e-01 -7.1184438e-01 -2.5515988e-02 
-7.7980596e-01 -7.0948732e-01 -2.1882024e-02 
-7.9101473e-01 -7.2052145e-01 -1.6143112e-02 
-7.7722275e-01 -7.0677996e-01 -1.8928148e-02 
-7.7693671e-01 -7.0671207e-01 -2.4634140e-02 
-7.8033024e-01 -7.0977801e-01 -1.5767543e-02 
-7.9017222e-01 -7.1981257e-01 -1.9692246e-02 
-7.7776253e-01 -7.0723301e-01 -1.6623287e-02 
-7.8288698e-01 -7.1235263e-01 -1.5959257e-02 
-7.7889484e-01 -7.0867330e-01 -2.4494467e-02 
-7.7622974e-01 -7.0602816e-01 -2.5309687e-02 
-7.8164601e-01 -7.1135908e-01 -2.2494292e-02 
-7.7463937e-01 -7.0429122e-01 -2.1667928e-02 
-8.1441861e-01 -7.4393219e-01 -1.3752872e-02 
-8.0589974e-01 -7.3535752e-01 -1.3248030e-02 
-7.7204263e-01 -7.0156783e-01 -1.8654145e-02 
-7.7175438e-01 -7.0150048e-01 -2.4435183e-02 
-7.7466220e-01 -7.0407295e-01 -1.5406822e-02 
-7.7726716e-01 -7.0669675e-01 -1.5628058e-02 
-7.7646661e-01 -7.0616364e-01 -2.2634508e-02 
-7.7204704e-01 -7.0148063e-01 -1.6264521e-02 
-7.7305609e-01 -7.0280182e-01 -2.4268830e-02 
-7.6944190e-01 -6.9906425e-01 -2.1452583e-02 
-7.9738098e-01 -7.2678316e-01 -1.2743525e-02 
-7.7874404e-01 -7.0817882e-01 -1.5606852e-02 
-7.7034259e-01 -7.0010883e-01 -2.5099397e-02 
-7.8428042e-01 -7.1371228e-01 -1.4932997e-02 
-7.8424239e-01 -7.1375227e-01 -1.6958335e-02 
-7.7880895e-01 -7.0837730e-01 -1.9053666e-02 
-7.6687926e-01 -6.9660926e-01 -2.4529561e-02 
-7.6683146e-01 -6.9632524e-01 -1.8379254e-02 
-7.7154404e-01 -7.0093757e-01 -1.5291702e-02 
-7.6888937e-01 -6.9826275e-01 -1.5040265e-02 
-7.8886294e-01 -7.1820992e-01 -1.2239758e-02 
-7.6622546e-01 -6.9562167e-01 -1.5899384e-02 
-7.6996803e-01 -6.9961292e-01 -2.1962095e-02 
-7.6711226e-01 -6.9682515e-01 -2.4038903e-02 
-7.6421338e-01 -6.9380641e-01 -2.1236189e-02 
-7.6434904e-01 -6.9408268e-01 -2.4885161e-02 
-7.7576768e-01 -7.0514458e-01 -1.4421683e-02 
-7.6634997e-01 -6.9570798e-01 -1.4913393e-02 
-7.6158875e-01 -6.9105160e-01 -1.8102791e-02 
-7.6136893e-01 -6.9107002e-01 -2.4347743e-02 
-7.6300824e-01 -6.9234413e-01 -1.4667985e-02 
-7.6460063e-01 -6.9422948e-01 -2.2107165e-02 
-7.8034687e-01 -7.0963889e-01 -1.1737726e-02 
-7.6853871e-01 -6.9790244e-01 -1.4836214e-02 
-7.6029396e-01 -6.8965268e-01 -1.5528567e-02 
-7.5895262e-01 -6.8851680e-01 -2.1018729e-02 
-7.6106048e-01 -6.9074023e-01 -2.3803648e-02 
-7.6704115e-01 -6.9653577e-01 -1.8380694e-02 
-7.5824553e-01 -6.8794698e-01 -2.4666725e-02 
-7.5631392e-01 -6.8574589e-01 -1.7825320e-02 
-7.5578243e-01 -6.8545055e-01 -2.4066158e-02 
-7.5977486e-01 -6.8909550e-01 -1.4603751e-02 
-7.5701553e-01 -6.8631375e-01 -1.4289885e-02 
-7.7183098e-01 -7.0106852e-01 -1.1236224e-02 
-7.5365996e-01 -6.8319577e-01 -2.0799775e-02 
-7.5786430e-01 -6.8744004e-01 -2.1405123e-02 
-7.5424922e-01 -6.8357068e-01 -1.5151969e-02 
-7.5489676e-01 -6.8454379e-01 -2.3563964e-02 
-7.5202936e-01 -6.8169838e-01 -2.4443652e-02 
-7.5100720e-01 -6.8040860e-01 -1.7546955e-02 
-7.5070965e-01 -6.8034190e-01 -2.3629488e-02 
-7.5438142e-01 -6.8366605e-01 -1.4210591e-02 
-7.5666612e-01 -6.8595684e-01 -1.4147429e-02 
-7.5090772e-01 -6.8016839e-01 -1.3906438e-02 
-7.5229669e-01 -6.8185699e-01 -2.1555506e-02 
-7.4833566e-01 -6.7784297e-01 -2.0579236e-02 
-7.6331884e-01 -6.9250369e-01 -1.0736501e-02 
-7.5484222e-01 -6.8426168e-01 -1.7671866e-02 
-7.4808806e-01 -6.7737257e-01 -1.4769576e-02 
-7.4861902e-01 -6.7823285e-01 -2.3318212e-02 
-7.4551189e-01 -6.7511392e-01 -2.3329020e-02 
-7.4566835e-01 -6.7504042e-01 -1.7266711e-02 
-7.4569702e-01 -6.7533344e-01 -2.4216859e-02 
-7.4755287e-01 -6.7680043e-01 -1.3896134e-02 
-7.4297839e-01 -6.7245811e-01 -2.0358099e-02 
-7.4468219e-01 -6.7390579e-01 -1.3517368e-02 
-7.4530941e-01 -6.7481619e-01 -2.0820716e-02 
-7.4180651e-01 -6.7105418e-01 -1.4381151e-02 
-7.4222380e-01 -6.7180461e-01 -2.3068616e-02 
-7.5024688e-01 -6.7946589e-01 -1.2897431e-02 
-7.5481087e-01 -6.8394482e-01 -1.0238813e-02 
-7.4029624e-01 -6.6963798e-01 -1.6985277e-02 
-7.3999417e-01 -6.6957158e-01 -2.3219759e-02 
-7.3924452e-01 -6.6884911e-01 -2.3985777e-02 
-7.4194801e-01 -6.7116034e-01 -1.3487210e-02 
-7.4433577e-01 -6.7355424e-01 -1.3434701e-02 
-7.3758817e-01 -6.6704029e-01 -2.0135121e-02 
-7.3833340e-01 -6.6752011e-01 -1.3121695e-02 
-7.3952949e-01 -6.6902184e-01 -2.0977259e-02 
-7.4218696e-01 -6.7153239e-01 -1.6924720e-02 
-7.3510098e-01 -6.6466379e-01 -2.3287285e-02 
-7.3959142e-01 -6.6890746e-01 -1.6395066e-02 
-7.3499954e-01 -6.6432738e-01 -1.7095210e-02 
-7.3540092e-01 -6.6461176e-01 -1.3986625e-02 
-7.3570496e-01 -6.6525394e-01 -2.2812167e-02 
-7.4630648e-01 -6.7538935e-01 -9.7439922e-03 
-7.3266810e-01 -6.6224164e-01 -2.3749072e-02 
-7.3216522e-01 -6.6159093e-01 -1.9911226e-02 
-7.3484820e-01 -6.6402429e-01 -1.3167230e-02 
-7.3185873e-01 -6.6100830e-01 -1.2720691e-02 
-7.2929275e-01 -6.5883195e-01 -2.3149600e-02 
-7.2945327e-01 -6.5873724e-01 -1.6420931e-02 
-7.3227262e-01 -6.6171151e-01 -2.0207843e-02 
-7.2886771e-01 -6.5804213e-01 -1.3585286e-02 
-7.2905999e-01 -6.5857768e-01 -2.2551287e-02 
-7.2670859e-01 -6.5610802e-01 -1.9686669e-02 
-7.3780692e-01 -6.6684198e-01 -9.2516439e-03 
-7.2596395e-01 -6.5550691e-01 -2.3507988e-02 
-7.3169172e-01 -6.6083330e-01 -1.2532231e-02 
-7.2830641e-01 -6.5744627e-01 -1.2794785e-02 
-7.2398061e-01 -6.5323788e-01 -1.6136689e-02 
-7.2525346e-01 -6.5436691e-01 -1.2314637e-02 
-7.2626638e-01 -6.5569258e-01 -2.0370601e-02 
-7.2337711e-01 -6.5288907e-01 -2.2903664e-02 
-7.2904384e-01 -6.5831500e-01 -1.6136725e-02 
-7.2220236e-01 -6.5134084e-01 -1.3178852e-02 
-7.2121632e-01 -6.5059143e-01 -1.9461246e-02 
-7.2228616e-01 -6.5177351e-01 -2.2283023e-02 
-7.2275645e-01 -6.5187216e-01 -1.2582523e-02 
-7.1912897e-01 -6.4864302e-01 -2.3261229e-02 
-7.1847355e-01 -6.4770466e-01 -1.5852548e-02 
-7.1816140e-01 -6.4763838e-01 -2.2387851e-02 
-7.2931647e-01 -6.5830654e-01 -8.7627582e-03 
-7.2477037e-01 -6.5384674e-01 -1.1397780e-02 
-7.1851510e-01 -6.4759320e-01 -1.1903522e-02 
-7.1636659e-01 -6.4570087e-01 -1.8732406e-02 
-7.1872556e-01 -6.4809930e-01 -1.9563846e-02 
-7.1569139e-01 -6.4504361e-01 -1.9234730e-02 
-7.1540219e-01 -6.4450723e-01 -1.2769350e-02 
-7.1538079e-01 -6.4483833e-01 -2.2007219e-02 
-7.1293288e-01 -6.4213938e-01 -1.5567355e-02 
-7.1260571e-01 -6.4205801e-01 -2.2089610e-02 
-7.1482098e-01 -6.4389348e-01 -1.2039241e-02 
-7.1215981e-01 -6.4164686e-01 -2.3008384e-02 
-7.1719044e-01 -6.4624560e-01 -1.1417382e-02 
-7.1671337e-01 -6.4588499e-01 -1.4479109e-02 
-7.2082955e-01 -6.4977396e-01 -8.2780002e-03 
-7.1164066e-01 -6.4068484e-01 -1.1488065e-02 
-7.1013278e-01 -6.3946331e-01 -1.9005219e-02 
-7.1175343e-01 -6.4109701e-01 -1.9227909e-02 
-7.0846403e-01 -6.3753617e-01 -1.2353612e-02 
-7.0761925e-01 -6.3706613e-01 -2.2243420e-02 
-7.0736045e-01 -6.3654369e-01 -1.5283169e-02 
-7.0833760e-01 -6.3776916e-01 -2.1728121e-02 
-7.0787376e-01 -6.3691431e-01 -1.1652453e-02 
-7.0505434e-01 -6.3451564e-01 -2.2751369e-02 
-7.0454371e-01 -6.3385195e-01 -1.8775456e-02 
-7.0462370e-01 -6.3363701e-01 -1.1067576e-02 
-7.0821971e-01 -6.3735527e-01 -1.4073613e-02 
-7.0786440e-01 -6.3688624e-01 -1.1150189e-02 
-7.1235496e-01 -6.4125860e-01 -7.7981744e-03 
-7.0464247e-01 -6.3395810e-01 -1.8885145e-02 
-7.0143634e-01 -6.3084966e-01 -2.1750379e-02 
-7.0168430e-01 -6.3085908e-01 -1.5415950e-02 
-7.0138168e-01 -6.3042474e-01 -1.1930973e-02 
-7.0115608e-01 -6.3056272e-01 -2.1440566e-02 
-6.9891769e-01 -6.2820655e-01 -1.8546183e-02 
-7.0176691e-01 -6.3078630e-01 -1.1407161e-02 
-6.9780630e-01 -6.2724441e-01 -2.2487631e-02 
-6.9746262e-01 -6.2644672e-01 -1.0642007e-02 
-6.9611305e-01 -6.2525326e-01 -1.4709290e-02 
-6.9579011e-01 -6.2518746e-01 -2.1536367e-02 
-6.9739026e-01 -6.2668014e-01 -1.8533153e-02 
-7.0014405e-01 -6.2923896e-01 -1.3415912e-02 
-7.0389360e-01 -6.3276029e-01 -7.3222197e-03 
-6.9415379e-01 -6.2316853e-01 -1.1503696e-02 
-6.9897282e-01 -6.2795073e-01 -1.0429206e-02 
-6.9325632e-01 -6.2252939e-01 -1.8318113e-02 
-6.9383031e-01 -6.2321484e-01 -2.1146623e-02 
-6.9427830e-01 -6.2327141e-01 -1.1014288e-02 
-6.9043535e-01 -6.1955845e-01 -1.4422802e-02 
-6.9011027e-01 -6.1949492e-01 -2.1321885e-02 
-6.9041240e-01 -6.1983067e-01 -2.2219377e-02 
-6.9015151e-01 -6.1910921e-01 -1.0211139e-02 
-6.8999189e-01 -6.1925924e-01 -1.8172503e-02 
-6.8756044e-01 -6.1682051e-01 -1.8086737e-02 
-6.9204998e-01 -6.2112927e-01 -1.3286009e-02 
-6.9544673e-01 -6.2428033e-01 -6.8524922e-03 
-6.8677300e-01 -6.1576313e-01 -1.1070996e-02 
-6.8635535e-01 -6.1572146e-01 -2.0846212e-02 
-6.9076884e-01 -6.1971605e-01 -9.9062668e-03 
-6.8472338e-01 -6.1383033e-01 -1.4136296e-02 
-6.8439716e-01 -6.1376858e-01 -2.1106122e-02 
-6.8649888e-01 -6.1546797e-01 -1.0593192e-02 
-6.8286675e-01 -6.1226988e-01 -2.1945441e-02 
-6.8183076e-01 -6.1107707e-01 -1.7852882e-02 
-6.8268478e-01 -6.1162031e-01 -9.7754868e-03 
-6.8244189e-01 -6.1168987e-01 -1.7802829e-02 
-6.7897832e-01 -6.0807151e-01 -1.3848965e-02 
-6.7864865e-01 -6.0800743e-01 -2.0891059e-02 
-6.7923427e-01 -6.0820472e-01 -1.0631866e-02 
-6.8701530e-01 -6.1582041e-01 -6.3892081e-03 
-6.7872643e-01 -6.0807842e-01 -2.0538878e-02 
-6.8249738e-01 -6.1156118e-01 -1.3083775e-02 
-6.8263119e-01 -6.1155069e-01 -9.3766004e-03 
-6.7606455e-01 -6.0530066e-01 -1.7621566e-02 
-6.7859566e-01 -6.0754442e-01 -1.0170016e-02 
-6.7516518e-01 -6.0455751e-01 -2.1664070e-02 
-6.7505902e-01 -6.0397613e-01 -9.3368571e-03 
-6.7589766e-01 -6.0511124e-01 -1.6941385e-02 
-6.7319345e-01 -6.0227674e-01 -1.3560794e-02 
-6.7286491e-01 -6.0221803e-01 -2.0670164e-02 
-6.7153436e-01 -6.0048896e-01 -1.0190048e-02 
-6.7859948e-01 -6.0737962e-01 -5.9251473e-03 
-6.7026407e-01 -5.9949505e-01 -1.7383434e-02 
-6.7094135e-01 -6.0028285e-01 -2.0224724e-02 
-6.7438185e-01 -6.0328245e-01 -8.9499494e-03 
-6.7334729e-01 -6.0236609e-01 -1.1979630e-02 
-6.7068076e-01 -5.9961331e-01 -9.7481068e-03 
-6.6737747e-01 -5.9645379e-01 -1.3269660e-02 
-6.6704375e-01 -5.9639376e-01 -2.0449728e-02 
-6.6730624e-01 -5.9669113e-01 -2.1380069e-02 
-6.6726995e-01 -5.9617341e-01 -8.8946437e-03 
-6.6803861e-01 -5.9722608e-01 -1.6192311e-02 
-6.6442615e-01 -5.9365255e-01 -1.7146515e-02 
-6.6367239e-01 -5.9261394e-01 -9.7441897e-03 
-6.6319883e-01 -5.9239590e-01 -1.6366528e-02 
-6.7020178e-01 -5.9896529e-01 -5.4697203e-03 
-6.6299486e-01 -5.9233063e-01 -1.9903449e-02 
-6.6623038e-01 -5.9512103e-01 -8.6530242e-03 
-6.6152370e-01 -5.9059501e-01 -1.2984704e-02 
-6.6118646e-01 -5.9053224e-01 -2.0230355e-02 
-6.6270059e-01 -5.9162199e-01 -9.3148807e-03 
-6.6501141e-01 -5.9400570e-01 -1.1269671e-02 
-6.5928239e-01 -5.8866507e-01 -2.1086689e-02 
-6.5855336e-01 -5.8777684e-01 -1.6913166e-02 
-6.5931189e-01 -5.8820629e-01 -8.4471619e-03 
-6.5989166e-01 -5.8907181e-01 -1.5742339e-02 
-6.5563232e-01 -5.8470058e-01 -1.2694132e-02 
-6.5529782e-01 -5.8464348e-01 -2.0008402e-02 
-6.5563172e-01 -5.8456975e-01 -9.2948321e-03 
-6.6181743e-01 -5.9056765e-01 -5.0185313e-03 
-6.5488106e-01 -5.8421659e-01 -1.9573893e-02 
-6.5803272e-01 -5.8691490e-01 -8.2383435e-03 
-6.5264386e-01 -5.8186924e-01 -1.6673911e-02 
-6.5460539e-01 -5.8352268e-01 -8.8855596e-03 
-6.5684199e-01 -5.8581507e-01 -1.0470382e-02 
-6.5124404e-01 -5.8037060e-01 -1.3934528e-02 
-6.5108788e-01 -5.8047581e-01 -2.0791436e-02 
-6.5117782e-01 -5.8007002e-01 -7.9974942e-03 
-6.4970624e-01 -5.7877892e-01 -1.2403639e-02 
-6.5148193e-01 -5.8065420e-01 -1.5115389e-02 
-6.4860648e-01 -5.7796907e-01 -2.0051247e-02 
-6.4741820e-01 -5.7635683e-01 -8.8390112e-03 
-6.4669508e-01 -5.7592773e-01 -1.6436260e-02 
-6.5345860e-01 -5.8220500e-01 -4.5772009e-03 
-6.4661402e-01 -5.7594025e-01 -1.8803198e-02 
-6.4956522e-01 -5.7845336e-01 -7.9047577e-03 
-6.4668459e-01 -5.7560045e-01 -8.4214816e-03 
-6.4894724e-01 -5.7789201e-01 -9.2935450e-03 
-6.4376032e-01 -5.7283974e-01 -1.2140870e-02 
-6.4342201e-01 -5.7278121e-01 -1.9555131e-02 
-6.4271998e-01 -5.7211769e-01 -2.0487569e-02 
-6.4290446e-01 -5.7180268e-01 -7.5491727e-03 
-6.4075297e-01 -5.6999314e-01 -1.6197601e-02 
-6.4145559e-01 -5.7063222e-01 -1.4530316e-02 
-6.3909018e-01 -5.6803852e-01 -8.3825588e-03 
-6.4512938e-01 -5.7388037e-01 -4.1472269e-03 
-6.3783890e-01 -5.6692523e-01 -1.1897854e-02 
-6.3750452e-01 -5.6687075e-01 -1.9315042e-02 
-6.3825005e-01 -5.6760687e-01 -1.8965824e-02 
-6.4063001e-01 -5.6958145e-01 -8.8567184e-03 
-6.3941938e-01 -5.6831563e-01 -7.3425295e-03 
-6.3692713e-01 -5.6585741e-01 -7.9279253e-03 
-6.3485152e-01 -5.6410009e-01 -1.5958738e-02 
-6.3439035e-01 -5.6380296e-01 -2.0190295e-02 
-6.3465261e-01 -5.6356132e-01 -7.0973574e-03 
-6.3369346e-01 -5.6294179e-01 -1.5671516e-02 
-6.3196129e-01 -5.6105953e-01 -1.1661815e-02 
-6.3124752e-01 -5.6063700e-01 -1.9396493e-02 
-6.3089979e-01 -5.5985886e-01 -7.9386393e-03 
-6.3681954e-01 -5.6558204e-01 -3.7216099e-03 
-6.2998301e-01 -5.5936170e-01 -1.8709878e-02 
-6.2899053e-01 -5.5825299e-01 -1.5726326e-02 
-6.2997442e-01 -5.5891317e-01 -7.5189127e-03 
-6.3162053e-01 -5.6067199e-01 -1.0507956e-02 
-6.3240916e-01 -5.6129199e-01 -6.2686349e-03 
-6.2919450e-01 -5.5813497e-01 -7.4836989e-03 
-6.2618583e-01 -5.5561978e-01 -1.9891601e-02 
-6.2611979e-01 -5.5523378e-01 -1.1430247e-02 
-6.2578970e-01 -5.5518180e-01 -1.8839641e-02 
-6.2653661e-01 -5.5545682e-01 -6.6624233e-03 
-6.2549454e-01 -5.5476999e-01 -1.5502151e-02 
-6.2317264e-01 -5.5245298e-01 -1.5493730e-02 
-6.2284458e-01 -5.5181956e-01 -7.5133471e-03 
-6.2853467e-01 -5.5731440e-01 -3.2925371e-03 
-6.2184459e-01 -5.5124974e-01 -1.8454870e-02 
-6.2058836e-01 -5.5001438e-01 -1.9062033e-02 
-6.2032759e-01 -5.4946029e-01 -1.1205736e-02 
-6.2193632e-01 -5.5088955e-01 -7.0822733e-03 
-6.2413603e-01 -5.5303550e-01 -5.8415653e-03 
-6.2405235e-01 -5.5303538e-01 -7.9969391e-03 
-6.1810863e-01 -5.4756868e-01 -1.9598121e-02 
-6.2093824e-01 -5.5007440e-01 -1.1572578e-02 
-6.1855328e-01 -5.4749489e-01 -6.2423241e-03 
-6.1740148e-01 -5.4669857e-01 -1.5266612e-02 
-6.1977792e-01 -5.4873830e-01 -7.0119482e-03 
-6.1742502e-01 -5.4673320e-01 -1.5332107e-02 
-6.1457461e-01 -5.4372478e-01 -1.0981038e-02 
-6.1491990e-01 -5.4392058e-01 -7.0972666e-03 
-6.2025976e-01 -5.4905671e-01 -2.8820324e-03 
-6.1383247e-01 -5.4327017e-01 -1.8202227e-02 
-6.1311597e-01 -5.4257143e-01 -1.8852711e-02 
-6.1403126e-01 -5.4300994e-01 -6.6580861e-03 
-6.1166418e-01 -5.4098701e-01 -1.5038322e-02 
-6.1587846e-01 -5.4479456e-01 -5.4195672e-03 
-6.1579263e-01 -5.4479289e-01 -7.5726588e-03 
-6.1015457e-01 -5.3965044e-01 -1.9309917e-02 
-6.1070144e-01 -5.3967237e-01 -5.8359550e-03 
-6.0885966e-01 -5.3803831e-01 -1.0764907e-02 
-6.0853606e-01 -5.3799021e-01 -1.8142071e-02 
-6.1134344e-01 -5.4053891e-01 -1.1727407e-02 
-6.1154586e-01 -5.4053462e-01 -6.6139549e-03 
-6.0948122e-01 -5.3882992e-01 -1.5160724e-02 
-6.0729271e-01 -5.3663504e-01 -1.4849024e-02 
-6.0712910e-01 -5.3616273e-01 -6.6975881e-03 
-6.0597342e-01 -5.3532177e-01 -1.4812242e-02 
-6.1201352e-01 -5.4083329e-01 -2.4770347e-03 
-6.0541934e-01 -5.3493094e-01 -1.9014360e-02 
-6.0594678e-01 -5.3542268e-01 -1.7950447e-02 
-6.0625911e-01 -5.3526908e-01 -6.2469118e-03 
-6.0765499e-01 -5.3660423e-01 -5.0091622e-03 
-6.0756654e-01 -5.3660154e-01 -7.1567367e-03 
-6.0319233e-01 -5.3240329e-01 -1.0553167e-02 
-6.0286415e-01 -5.3234929e-01 -1.7910641e-02 
-6.0273278e-01 -5.3202504e-01 -1.2732680e-02 
-6.0232204e-01 -5.3185970e-01 -1.9020459e-02 
-6.0272914e-01 -5.3198236e-01 -1.1683309e-02 
-6.0298574e-01 -5.3199035e-01 -5.4482464e-03 
-6.0314125e-01 -5.3237885e-01 -1.1299481e-02 
-6.0334736e-01 -5.3237593e-01 -6.2248493e-03 
-6.0166687e-01 -5.3106147e-01 -1.4983395e-02 
-6.0032696e-01 -5.2970833e-01 -1.4595149e-02 
-5.9977406e-01 -5.2931869e-01 -1.8782631e-02 
-5.9946722e-01 -5.2854073e-01 -6.3205194e-03 
-5.9784734e-01 -5.2735239e-01 -1.7435638e-02 
-5.9817845e-01 -5.2770382e-01 -1.7703943e-02 
-6.0380125e-01 -5.3265905e-01 -2.0823758e-03 
-5.9773391e-01 -5.2712870e-01 -1.4429893e-02 
-5.9756792e-01 -5.2681035e-01 -1.0346974e-02 
-5.9862274e-01 -5.2767396e-01 -5.8433474e-03 
-5.9946525e-01 -5.2846038e-01 -4.6073999e-03 
-5.9937465e-01 -5.2845645e-01 -6.7494870e-03 
-5.9472734e-01 -5.2414411e-01 -1.4373261e-02 
-5.9461707e-01 -5.2420574e-01 -1.8739047e-02 
-5.9538823e-01 -5.2443951e-01 -5.0730249e-03 
-5.9397000e-01 -5.2342069e-01 -1.4822485e-02 
-5.9497327e-01 -5.2425528e-01 -1.0869502e-02 
-5.9518164e-01 -5.2425814e-01 -5.8359248e-03 
-5.9199107e-01 -5.2127147e-01 -1.0140489e-02 
-5.9194970e-01 -5.2137440e-01 -1.3884577e-02 
-5.9166616e-01 -5.2122509e-01 -1.7453525e-02 
-5.9193152e-01 -5.2105010e-01 -5.9471480e-03 
-5.9053373e-01 -5.2011049e-01 -1.7458718e-02 
-5.9562486e-01 -5.2453011e-01 -1.6989603e-03 
-5.9110707e-01 -5.2020353e-01 -5.4604728e-03 
-5.8916849e-01 -5.1862603e-01 -1.4160427e-02 
-5.8862072e-01 -5.1824123e-01 -1.8344060e-02 
-5.8756858e-01 -5.1690429e-01 -1.0651520e-02 
-5.8792669e-01 -5.1702505e-01 -4.7112941e-03 
-5.8702689e-01 -5.1667011e-01 -1.8459123e-02 
-5.9131169e-01 -5.2035677e-01 -4.2153588e-03 
-5.9121925e-01 -5.2035093e-01 -6.3522453e-03 
-5.8663493e-01 -5.1609790e-01 -1.3696336e-02 