# vtk DataFile Version 4.0
vtk output
ASCII
DATASET UNSTRUCTURED_GRID
POINTS 6166 float
-4.3633327e-01 9.6409470e-01 4.4200001e+01 
-4.3633261e-01 9.6409082e-01 4.4079685e+01 
-3.2145375e-01 9.1276109e-01 4.4200001e+01 
-3.8566181e-01 8.4097892e-01 4.4200001e+01 
-3.3069235e-01 9.1895354e-01 4.4019413e+01 
-3.8473952e-01 8.3919770e-01 4.4024357e+01 
-4.3633196e-01 9.6408689e-01 4.3958702e+01 
-2.1293370e-01 8.4677851e-01 4.4200001e+01 
-2.9042658e-01 7.3813015e-01 4.4200001e+01 
-2.1019450e-01 8.4669626e-01 4.4077393e+01 
-2.8909999e-01 7.3605996e-01 4.4073399e+01 
-3.2963324e-01 9.1929907e-01 4.3898094e+01 
-3.8679782e-01 8.4179753e-01 4.3889645e+01 
-2.0740938e-01 8.4661204e-01 4.3952713e+01 
-4.3633130e-01 9.6408290e-01 4.3837040e+01 
-1.1677200e-01 7.7521002e-01 4.4200001e+01 
-2.8775173e-01 7.3395580e-01 4.3944717e+01 
-1.9365783e-01 6.6203654e-01 4.4200001e+01 
-1.1309985e-01 7.7540898e-01 4.4012005e+01 
-1.9181472e-01 6.5888047e-01 4.4006447e+01 
-3.2856464e-01 9.1964108e-01 4.3776085e+01 
-3.8823184e-01 8.4352189e-01 4.3765770e+01 
-2.0457739e-01 8.4652513e-01 4.3825886e+01 
-2.8638119e-01 7.3181647e-01 4.3813885e+01 
-4.3633065e-01 9.6407896e-01 4.3714680e+01 
-1.0911675e-01 7.7426714e-01 4.3886200e+01 
-2.1001574e-02 6.8269837e-01 4.4200001e+01 
-1.8902887e-01 6.5566909e-01 4.3876659e+01 
-7.8887597e-02 5.9015810e-01 4.4200001e+01 
-3.2748649e-01 9.1997939e-01 4.3653378e+01 
-3.9889076e-01 8.5876143e-01 4.3651733e+01 
-2.0169757e-01 8.4643483e-01 4.3696846e+01 
-7.2496021e-03 6.7325598e-01 4.3947758e+01 
-1.0504345e-01 7.7307969e-01 4.3758209e+01 
-2.8498772e-01 7.2964084e-01 4.3680840e+01 
-6.3224643e-02 5.7783771e-01 4.3940754e+01 
3.5808440e-02 6.2679136e-01 4.4056572e+01 
-1.8616955e-01 6.5238589e-01 4.3744686e+01 
-4.3632996e-01 9.6407503e-01 4.3591618e+01 
-9.8678423e-03 5.4892725e-01 4.4055367e+01 
-1.8652271e-02 6.8798620e-01 4.3834026e+01 
-7.9845116e-02 5.8636194e-01 4.3823372e+01 
8.7777540e-02 5.7885915e-01 4.4200001e+01 
5.3622175e-02 5.1732427e-01 4.4200001e+01 
-3.2639861e-01 9.2031354e-01 4.3529953e+01 
-3.9894739e-01 8.5844576e-01 4.3528313e+01 
-1.9876897e-01 8.4634024e-01 4.3565521e+01 
-1.0087753e-01 7.7184403e-01 4.3627972e+01 
-2.8357074e-01 7.2742778e-01 4.3545506e+01 
-1.8323407e-01 6.4902818e-01 4.3610458e+01 
-4.3632931e-01 9.6407109e-01 4.3467831e+01 
3.1033519e-03 6.6751039e-01 4.3691772e+01 
-5.3600248e-02 5.6906003e-01 4.3676846e+01 
1.2436585e-01 5.5082864e-01 4.3886215e+01 
1.7079005e-01 5.1095647e-01 4.4054855e+01 
1.4951277e-01 4.6697062e-01 4.4053665e+01 
1.0028158e-01 4.8915190e-01 4.3877911e+01 
-4.0513036e-01 8.6722642e-01 4.3405304e+01 
-3.2530096e-01 9.2064321e-01 4.3405800e+01 
-9.6616447e-02 7.7055699e-01 4.3495411e+01 
-8.4563000e-03 6.8258613e-01 4.3574005e+01 
-1.9579062e-01 8.4624058e-01 4.3431831e+01 
2.1753120e-01 4.7335833e-01 4.4200001e+01 
2.0360756e-01 4.4289169e-01 4.4200001e+01 
-1.8021962e-01 6.4559317e-01 4.3473904e+01 
-7.0636064e-02 5.7773441e-01 4.3555408e+01 
-2.8212959e-01 7.2517604e-01 4.3407806e+01 
-4.3632865e-01 9.6406716e-01 4.3343307e+01 
1.3810426e-01 5.4143524e-01 4.3628246e+01 
-3.2419339e-01 9.2096806e-01 4.3280907e+01 
-3.9903235e-01 8.5775709e-01 4.3279266e+01 
-9.2257597e-02 7.6921552e-01 4.3360443e+01 
1.1508528e-01 4.7804743e-01 4.3612068e+01 
-1.9276154e-01 8.4613472e-01 4.3295704e+01 
1.4013666e-02 6.6131532e-01 4.3426643e+01 
-1.7712323e-01 6.4207786e-01 4.3334946e+01 
-2.8066361e-01 7.2288430e-01 4.3267666e+01 
-4.3382257e-02 5.5983055e-01 4.3403778e+01 
-4.3632799e-01 9.6406323e-01 4.3218033e+01 
3.7877345e-01 3.8273901e-01 4.4200001e+01 
3.9076596e-01 3.7443376e-01 4.3993755e+01 
-3.2307580e-01 9.2128778e-01 4.3155251e+01 
-3.9906058e-01 8.5738426e-01 4.3153610e+01 
-8.7798268e-02 7.6781619e-01 4.3222996e+01 
1.9689407e-02 6.5803534e-01 4.3290459e+01 
-6.0862999e-02 5.6866169e-01 4.3278019e+01 
-1.8968078e-01 8.4602165e-01 4.3157055e+01 
-1.7394182e-01 6.3847917e-01 4.3193501e+01 
-4.3632734e-01 9.6405929e-01 4.3091995e+01 
4.0275589e-01 3.6612594e-01 4.3787510e+01 
1.2304078e-01 5.5709994e-01 4.3330139e+01 
-2.7917209e-01 7.2055119e-01 4.3125000e+01 
2.5336364e-01 4.4907436e-01 4.3468094e+01 
2.3670304e-01 4.1684708e-01 4.3469433e+01 
1.3086085e-01 4.6634668e-01 4.3336948e+01 
-3.8351217e-01 8.3473074e-01 4.3036392e+01 
-3.2194808e-01 9.2160189e-01 4.3028820e+01 
2.5518833e-02 6.5462554e-01 4.3151749e+01 
-8.3235659e-02 7.6635528e-01 4.3082981e+01 
4.1474071e-01 3.5781288e-01 4.3581264e+01 
-1.8654740e-01 8.4590012e-01 4.3015797e+01 
-3.2522827e-02 5.5011308e-01 4.3120937e+01 
-1.7067213e-01 6.3479382e-01 4.3049488e+01 
-4.3632668e-01 9.6405542e-01 4.2965172e+01 
-2.7765438e-01 7.1817529e-01 4.2979721e+01 
2.6620242e-01 4.4011977e-01 4.3261948e+01 
1.3584816e-02 6.7044950e-01 4.3025066e+01 
-3.2081014e-01 9.2191011e-01 4.2901604e+01 
-3.8160574e-01 8.3169121e-01 4.2902863e+01 
-7.8566879e-02 7.6482886e-01 4.2940315e+01 
-5.0480481e-02 5.5910730e-01 4.2990566e+01 
4.2671782e-01 3.4949207e-01 4.3375019e+01 
1.6821145e-01 5.2049083e-01 4.3083881e+01 
-1.8336046e-01 8.4576881e-01 4.2871841e+01 
-4.3632606e-01 9.6405160e-01 4.2837555e+01 
-1.6731077e-01 6.3101834e-01 4.2902817e+01 
1.4768846e-01 4.5400122e-01 4.3051926e+01 
-2.7610970e-01 7.1575516e-01 4.2831745e+01 
-3.1966189e-01 9.2221189e-01 4.2773579e+01 
-3.8560396e-01 8.3684862e-01 4.2767078e+01 
3.7660085e-02 6.4738947e-01 4.2866421e+01 
-7.3788933e-02 7.6323271e-01 4.2794899e+01 
4.3868470e-01 3.4116083e-01 4.3168777e+01 
-4.3632543e-01 9.6404779e-01 4.2709122e+01 
-2.0968946e-02 5.3986710e-01 4.2827656e+01 
-1.8011902e-01 8.4562629e-01 4.2725094e+01 
-1.6385415e-01 6.2714905e-01 4.2753403e+01 
-2.7453732e-01 7.1328926e-01 4.2680973e+01 
-3.1850323e-01 9.2250693e-01 4.2644733e+01 
-3.9907700e-01 8.5570478e-01 4.2643101e+01 
2.5504474e-02 6.6361672e-01 4.2734810e+01 
1.8471870e-01 5.0880390e-01 4.2796177e+01 
-6.8898737e-02 7.6156229e-01 4.2646645e+01 
-3.9438177e-02 5.4903054e-01 4.2692345e+01 
-4.3632481e-01 9.6404403e-01 4.2579861e+01 
4.5063871e-01 3.3281663e-01 4.2962532e+01 
1.6565691e-01 4.4095638e-01 4.2756321e+01 
-1.7682223e-01 8.4547096e-01 4.2575459e+01 
-1.6029853e-01 6.2318206e-01 4.2601143e+01 
-4.0415615e-01 8.6278629e-01 4.2516582e+01 
-3.1733403e-01 9.2279470e-01 4.2515053e+01 
-2.7293649e-01 7.1077597e-01 4.2527313e+01 
5.0482783e-02 6.3954860e-01 4.2569923e+01 
-4.3632418e-01 9.6404034e-01 4.2449757e+01 
-6.3893095e-02 7.5981271e-01 4.2495445e+01 
-8.6617703e-03 5.2904755e-01 4.2523201e+01 
-1.7346917e-01 8.4530097e-01 4.2422829e+01 
-1.5663996e-01 6.1911333e-01 4.2445942e+01 
3.0435190e-01 4.1341871e-01 4.2643494e+01 
4.6257737e-01 3.2445681e-01 4.2756287e+01 
-3.1615424e-01 9.2307472e-01 4.2384518e+01 
-3.9902648e-01 8.5475212e-01 4.2382885e+01 
-2.7130640e-01 7.0821363e-01 4.2370659e+01 
3.8079392e-02 6.5619886e-01 4.2433029e+01 
2.0230262e-01 4.9620378e-01 4.2497147e+01 
-4.3632355e-01 9.6403670e-01 4.2318787e+01 
-5.8768708e-02 7.5797862e-01 4.2341198e+01 
-2.7680276e-02 5.3838593e-01 4.2382599e+01 
1.8486446e-01 4.2715022e-01 4.2449394e+01 
-3.8436696e-01 8.3356136e-01 4.2264896e+01 
8.9545198e-02 5.3233254e-01 4.2382050e+01 
-3.3225983e-01 9.3122375e-01 4.2255634e+01 
-1.7005907e-01 8.4511453e-01 4.2267101e+01 
-1.5287429e-01 6.1493850e-01 4.2287693e+01 
4.7449806e-01 3.1607881e-01 4.2550037e+01 
-2.6964626e-01 7.0560038e-01 4.2210907e+01 
-4.3632296e-01 9.6403313e-01 4.2186939e+01 
6.4036883e-02 6.3103610e-01 4.2261456e+01 
-5.3522192e-02 7.5605446e-01 4.2183796e+01 
-3.7873057e-01 8.2541841e-01 4.2124020e+01 
-3.1376252e-01 9.2360973e-01 4.2120819e+01 
4.4639236e-03 5.1760370e-01 4.2206776e+01 
-1.6659111e-01 8.4490943e-01 4.2108162e+01 
-1.4899719e-01 6.1065292e-01 4.2126286e+01 
-4.3632239e-01 9.6402961e-01 4.2054195e+01 
4.8639825e-01 3.0768004e-01 4.2343792e+01 
-2.6795524e-01 7.0293444e-01 4.2047943e+01 
2.4746621e-01 4.6040925e-01 4.2191032e+01 
7.1105182e-02 6.2650448e-01 4.2102463e+01 
-3.1255043e-01 9.2386365e-01 4.1987617e+01 
-4.8150036e-02 7.5403398e-01 4.2023121e+01 
-1.5144684e-02 5.2712250e-01 4.2060505e+01 
-3.7995064e-01 8.2661813e-01 4.1980038e+01 
2.0541981e-01 4.1251117e-01 4.2130333e+01 
-1.6306458e-01 8.4468329e-01 4.1945896e+01 
-4.3632182e-01 9.6402621e-01 4.1920536e+01 
-1.4500406e-01 6.0625184e-01 4.1961609e+01 
1.3375351e-01 5.6370503e-01 4.1969833e+01 
-2.6623246e-01 7.0021385e-01 4.1881653e+01 
-3.1132740e-01 9.2410773e-01 4.1853493e+01 
-3.9880505e-01 8.5261923e-01 4.1851868e+01 
4.9827534e-01 2.9925787e-01 4.2137547e+01 
3.4194937e-01 3.8685825e-01 4.2025021e+01 
-4.2648647e-02 7.5191063e-01 4.1859051e+01 
-2.5401810e-01 7.9503769e-01 4.1808533e+01 
1.8480448e-02 5.0547802e-01 4.1877510e+01 
-4.3632126e-01 9.6402287e-01 4.1785946e+01 
-1.5947884e-01 8.4443361e-01 4.1780174e+01 
-1.4089009e-01 6.0172999e-01 4.1793541e+01 
-3.1009343e-01 9.2434150e-01 4.1718426e+01 
-4.0306881e-01 8.5845691e-01 4.1716179e+01 
8.5861288e-02 6.1683756e-01 4.1774368e+01 
-2.6447710e-01 6.9743657e-01 4.1711910e+01 
3.0427080e-01 4.1638452e-01 4.1839512e+01 
2.6751360e-01 3.7833902e-01 4.1830902e+01 
5.1012677e-01 2.9080975e-01 4.1931297e+01 
-3.7014309e-02 7.4967718e-01 4.1691463e+01 
-4.3632072e-01 9.6401966e-01 4.1650398e+01 
2.5847588e-02 4.9913955e-01 4.1707767e+01 
-1.5583332e-01 8.4415752e-01 4.1610870e+01 
-3.8322043e-01 8.2981020e-01 4.1595791e+01 
-3.0884841e-01 9.2456430e-01 4.1582397e+01 
-1.3665022e-01 5.9708190e-01 4.1621960e+01 
9.3565010e-02 6.1167872e-01 4.1605015e+01 
-2.6268822e-01 6.9460052e-01 4.1538593e+01 
-4.3632022e-01 9.6401656e-01 4.1513885e+01 
-3.1243213e-02 7.4732590e-01 4.1520226e+01 
2.7603787e-01 3.7115356e-01 4.1624012e+01 
2.8505871e-01 4.3281260e-01 4.1611507e+01 
5.2195001e-01 2.8233302e-01 4.1725052e+01 
3.3468332e-02 4.9260557e-01 4.1534447e+01 
-3.9853087e-01 8.5081697e-01 4.1443768e+01 
-3.2560509e-01 9.3245691e-01 4.1443577e+01 
-1.5212752e-01 8.4385180e-01 4.1437847e+01 
-1.3227913e-01 5.9230179e-01 4.1446728e+01 
-4.3631971e-01 9.6401358e-01 4.1376381e+01 
[...]
POINT_DATA 6166
FIELD FieldData 5
DISPLACEMENT 3 6166  float
3.0875120e+00 2.8156128e+00 -3.3013776e-01 
3.0692251e+00 2.7972386e+00 -3.2731131e-01 
3.0867362e+00 2.8147874e+00 -3.3974054e-01 
3.0882778e+00 2.8164351e+00 -3.1901833e-01 
3.0593286e+00 2.7872510e+00 -3.3504215e-01 
3.0615904e+00 2.7896211e+00 -3.1476077e-01 
3.0508368e+00 2.7787623e+00 -3.2446906e-01 
3.0861964e+00 2.8142145e+00 -3.4613866e-01 
3.0882995e+00 2.8164630e+00 -3.1776461e-01 
3.0675304e+00 2.7954574e+00 -3.4366238e-01 
3.0690644e+00 2.7971365e+00 -3.1467617e-01 
3.0408728e+00 2.7687061e+00 -3.3240607e-01 
3.0411110e+00 2.7690432e+00 -3.1168157e-01 
3.0485482e+00 2.7763824e+00 -3.4114388e-01 
3.0323453e+00 2.7601826e+00 -3.2161081e-01 
3.0858624e+00 2.8138614e+00 -3.4980607e-01 
3.0495133e+00 2.7774925e+00 -3.1153709e-01 
3.0880082e+00 2.8161557e+00 -3.2083264e-01 
3.0572441e+00 2.7851031e+00 -3.4597865e-01 
3.0586033e+00 2.7866113e+00 -3.1608430e-01 
3.0223129e+00 2.7500567e+00 -3.2975462e-01 
3.0222812e+00 2.7501233e+00 -3.0881810e-01 
3.0292399e+00 2.7569799e+00 -3.3858156e-01 
3.0296361e+00 2.7575212e+00 -3.0834606e-01 
3.0137486e+00 2.7414975e+00 -3.1873631e-01 
3.0380886e+00 2.7658541e+00 -3.4345391e-01 
3.0857637e+00 2.8137603e+00 -3.5021329e-01 
3.0388792e+00 2.7667935e+00 -3.1296849e-01 
3.0874600e+00 2.8155744e+00 -3.2727873e-01 
3.0036471e+00 2.7313008e+00 -3.2708740e-01 
3.0049062e+00 2.7326622e+00 -3.0685046e-01 
3.0095954e+00 2.7372398e+00 -3.3597386e-01 
3.0473688e+00 2.7751782e+00 -3.4493417e-01 
3.0186017e+00 2.7462721e+00 -3.4088463e-01 
3.0094228e+00 2.7372124e+00 -3.0510166e-01 
3.0480099e+00 2.7759333e+00 -3.2168591e-01 
3.0639169e+00 2.7918084e+00 -3.4692857e-01 
3.0188236e+00 2.7466426e+00 -3.0980235e-01 
2.9950454e+00 2.7227054e+00 -3.1584558e-01 
3.0651250e+00 2.7931125e+00 -3.2806289e-01 
3.0300539e+00 2.7577782e+00 -3.4278214e-01 
3.0302684e+00 2.7581134e+00 -3.1770775e-01 
3.0856380e+00 2.8136308e+00 -3.5086501e-01 
3.0867152e+00 2.8147833e+00 -3.3627293e-01 
2.9848738e+00 2.7124379e+00 -3.2440457e-01 
2.9861529e+00 2.7138202e+00 -3.0389616e-01 
2.9896040e+00 2.7171516e+00 -3.3331919e-01 
2.9987733e+00 2.7263472e+00 -3.3826903e-01 
2.9888632e+00 2.7165554e+00 -3.0180207e-01 
2.9984260e+00 2.7261488e+00 -3.0658382e-01 
2.9762337e+00 2.7038052e+00 -3.1293771e-01 
3.0084047e+00 2.7360251e+00 -3.3961555e-01 
3.0078821e+00 2.7356143e+00 -3.1560880e-01 
3.0378265e+00 2.7655842e+00 -3.4476751e-01 
3.0633559e+00 2.7912312e+00 -3.4968591e-01 
3.0639086e+00 2.7918344e+00 -3.3970383e-01 
3.0375257e+00 2.7653449e+00 -3.3148861e-01 
2.9674363e+00 2.6950138e+00 -3.0141205e-01 
2.9659908e+00 2.6934652e+00 -3.2170486e-01 
2.9785922e+00 2.7060683e+00 -3.3560538e-01 
2.9904759e+00 2.7180080e+00 -3.3739758e-01 
2.9692550e+00 2.6967044e+00 -3.3061582e-01 
3.0852857e+00 2.8132598e+00 -3.5444802e-01 
3.0857842e+00 2.8137932e+00 -3.4767684e-01 
2.9776762e+00 2.7053015e+00 -3.0331260e-01 
2.9895301e+00 2.7171814e+00 -3.1149688e-01 
2.9679461e+00 2.6955404e+00 -2.9844698e-01 
2.9573126e+00 2.6847949e+00 -3.1001392e-01 
2.9985614e+00 2.7261283e+00 -3.3935907e-01 
2.9469979e+00 2.6743832e+00 -3.1899029e-01 
2.9483182e+00 2.6758089e+00 -2.9793486e-01 
2.9580481e+00 2.6854250e+00 -3.3289185e-01 
2.9970691e+00 2.7246931e+00 -3.2579684e-01 
2.9485373e+00 2.6758881e+00 -3.2786176e-01 
2.9680541e+00 2.6954789e+00 -3.3409843e-01 
2.9565635e+00 2.6840899e+00 -2.9998702e-01 
2.9466605e+00 2.6741557e+00 -2.9503286e-01 
2.9663656e+00 2.6939013e+00 -3.0934182e-01 
2.9382794e+00 2.6656735e+00 -3.0707267e-01 
3.0844016e+00 2.8123207e+00 -3.6508763e-01 
3.0530050e+00 2.7807701e+00 -3.6079493e-01 
2.9278920e+00 2.6551869e+00 -3.1625864e-01 
2.9292340e+00 2.6566360e+00 -2.9492736e-01 
2.9371293e+00 2.6644070e+00 -3.3012664e-01 
2.9473317e+00 2.6746576e+00 -3.3126038e-01 
2.9473648e+00 2.6748183e+00 -3.0508867e-01 
2.9274390e+00 2.6546907e+00 -3.2505479e-01 
2.9350765e+00 2.6625035e+00 -2.9660568e-01 
2.9191327e+00 2.6464391e+00 -3.0411443e-01 
3.0216084e+00 2.7492204e+00 -3.5650131e-01 
2.9532630e+00 2.6806149e+00 -3.3246288e-01 
2.9249954e+00 2.6523914e+00 -2.9156014e-01 
2.9738932e+00 2.7013266e+00 -3.3898696e-01 
2.9746459e+00 2.7021189e+00 -3.3156413e-01 
2.9552038e+00 2.6826272e+00 -3.1994563e-01 
2.9114966e+00 2.6388228e+00 -2.9108137e-01 
2.9086721e+00 2.6358790e+00 -3.1350896e-01 
2.9262288e+00 2.6534562e+00 -3.2836813e-01 
2.9158237e+00 2.6430018e+00 -3.2730827e-01 
2.9902141e+00 2.7176743e+00 -3.5220620e-01 
2.9059489e+00 2.6331007e+00 -3.2219589e-01 
2.9233730e+00 2.6507096e+00 -3.0287617e-01 
2.9132025e+00 2.6405306e+00 -2.9316527e-01 
2.8998718e+00 2.6270909e+00 -3.0113867e-01 
2.9029381e+00 2.6302345e+00 -2.8802627e-01 
2.9425185e+00 2.6698010e+00 -3.3472526e-01 
2.9069533e+00 2.6340892e+00 -3.2600012e-01 
2.8893361e+00 2.6164567e+00 -3.1074333e-01 
2.8912287e+00 2.6184652e+00 -2.8777823e-01 
2.8941195e+00 2.6211977e+00 -3.2443425e-01 
2.9036827e+00 2.6309366e+00 -2.9847175e-01 
2.9588263e+00 2.6861331e+00 -3.4790683e-01 
2.9157274e+00 2.6428998e+00 -3.2794893e-01 
2.8840535e+00 2.6111059e+00 -3.1928003e-01 
2.8804924e+00 2.6076264e+00 -2.9814458e-01 
2.8909307e+00 2.6181593e+00 -2.8966811e-01 
2.9118428e+00 2.6390638e+00 -3.1393316e-01 
2.8804760e+00 2.6076744e+00 -2.8443018e-01 
2.8698816e+00 2.5969169e+00 -3.0795959e-01 
2.8706031e+00 2.5977473e+00 -2.8478187e-01 
2.8828347e+00 2.6098633e+00 -3.2241040e-01 
2.8720040e+00 2.5989823e+00 -3.2150269e-01 
2.9274399e+00 2.6545966e+00 -3.4360677e-01 
2.8609953e+00 2.5880461e+00 -2.9513463e-01 
2.8788102e+00 2.6059477e+00 -2.9619959e-01 
2.8617411e+00 2.5886948e+00 -3.1630564e-01 
2.8682463e+00 2.5953777e+00 -2.8610808e-01 
2.8575983e+00 2.5846987e+00 -2.8077182e-01 
2.8503106e+00 2.5772612e+00 -3.0515778e-01 
2.8517370e+00 2.5787969e+00 -2.8271738e-01 
2.8628201e+00 2.5897572e+00 -3.1995568e-01 
2.8719735e+00 2.5989470e+00 -3.2192335e-01 
2.8494647e+00 2.5763443e+00 -3.1851014e-01 
2.8583858e+00 2.5854418e+00 -2.9163456e-01 
2.8413813e+00 2.5683491e+00 -2.9210952e-01 
2.8960669e+00 2.6230795e+00 -3.3930737e-01 
2.8668897e+00 2.5939064e+00 -3.0774677e-01 
2.8389990e+00 2.5658565e+00 -3.1327140e-01 
2.8451414e+00 2.5721743e+00 -2.8249061e-01 
2.8325210e+00 2.5595016e+00 -2.8007257e-01 
2.8306203e+00 2.5574915e+00 -3.0234230e-01 
2.8342931e+00 2.5612953e+00 -2.7704617e-01 
2.8377743e+00 2.5646052e+00 -3.1620666e-01 
2.8216465e+00 2.5485339e+00 -2.8906497e-01 
2.8264918e+00 2.5532749e+00 -3.1545666e-01 
2.8325827e+00 2.5595245e+00 -2.8930780e-01 
2.8158140e+00 2.5425754e+00 -3.1017524e-01 
2.8216040e+00 2.5485399e+00 -2.7880636e-01 
2.8484576e+00 2.5753131e+00 -3.2193562e-01 
2.8647094e+00 2.5915842e+00 -3.3500785e-01 
2.8108077e+00 2.5375957e+00 -2.9950830e-01 
2.8122764e+00 2.5391748e+00 -2.7650881e-01 
2.8105454e+00 2.5374529e+00 -2.7325279e-01 
2.8169758e+00 2.5437205e+00 -3.1366241e-01 
2.8265345e+00 2.5533140e+00 -3.1566599e-01 
2.8017893e+00 2.5285978e+00 -2.8600538e-01 
2.8030641e+00 2.5297523e+00 -3.1234124e-01 
2.8113797e+00 2.5382433e+00 -2.8457263e-01 
2.8202493e+00 2.5470703e+00 -3.0138344e-01 
2.7944529e+00 2.5212855e+00 -2.7275658e-01 
2.8099995e+00 2.5367718e+00 -3.0139521e-01 
2.7913721e+00 2.5180902e+00 -2.9529399e-01 
2.7921710e+00 2.5188379e+00 -3.0701515e-01 
2.7976105e+00 2.5244546e+00 -2.7506077e-01 
2.8333657e+00 2.5601017e+00 -3.3070186e-01 
2.7863400e+00 2.5131567e+00 -2.6939446e-01 
2.7818120e+00 2.5085456e+00 -2.8292909e-01 
2.7909369e+00 2.5175791e+00 -3.0974475e-01 
2.7791731e+00 2.5057664e+00 -3.0915806e-01 
2.7731318e+00 2.4998896e+00 -2.6909333e-01 
2.7708199e+00 2.4974532e+00 -2.9378402e-01 
2.7845776e+00 2.5113313e+00 -2.8218514e-01 
2.7680571e+00 2.4946318e+00 -3.0379233e-01 
2.7731526e+00 2.4999073e+00 -2.7124426e-01 
2.7617104e+00 2.4883699e+00 -2.7983335e-01 
2.8020394e+00 2.5286489e+00 -3.2639715e-01 
2.7616642e+00 2.4883921e+00 -2.6546448e-01 
2.7799928e+00 2.5065854e+00 -3.0990201e-01 
2.7668211e+00 2.4933679e+00 -3.0641246e-01 
2.7506371e+00 2.4772017e+00 -2.9089710e-01 
2.7548018e+00 2.4813042e+00 -3.0590406e-01 
2.7625439e+00 2.4892254e+00 -2.7727112e-01 
2.7513299e+00 2.4780126e+00 -2.6574692e-01 
2.7718067e+00 2.4984362e+00 -2.9483056e-01 
2.7434566e+00 2.4699419e+00 -3.0049795e-01 
2.7414782e+00 2.4680707e+00 -2.7671814e-01 
2.7482183e+00 2.4748881e+00 -2.6736736e-01 
2.7466967e+00 2.4731758e+00 -3.0324396e-01 
2.7365053e+00 2.4631512e+00 -2.6146680e-01 
2.7303283e+00 2.4568264e+00 -2.8798881e-01 
2.7318742e+00 2.4584870e+00 -2.6388061e-01 
2.7707472e+00 2.4972401e+00 -3.2209551e-01 
2.7545595e+00 2.4810431e+00 -3.0913100e-01 
2.7299402e+00 2.4563553e+00 -3.0257887e-01 
2.7242742e+00 2.4508033e+00 -2.7601209e-01 
2.7346883e+00 2.4612684e+00 -2.7482730e-01 
2.7211249e+00 2.4476569e+00 -2.7358899e-01 
2.7183609e+00 2.4447663e+00 -2.9712546e-01 
2.7227967e+00 2.4493854e+00 -2.6343012e-01 
2.7098956e+00 2.4363329e+00 -2.8506503e-01 
2.7113495e+00 2.4379039e+00 -2.6099083e-01 
2.7171133e+00 2.4434903e+00 -2.9951438e-01 
2.7108500e+00 2.4374228e+00 -2.5740224e-01 
2.7265973e+00 2.4529917e+00 -3.0360475e-01 
2.7261305e+00 2.4525831e+00 -2.9207361e-01 
2.7394686e+00 2.4658430e+00 -3.1778246e-01 
2.7045779e+00 2.4309123e+00 -2.9917973e-01 
2.7006459e+00 2.4271224e+00 -2.7045098e-01 
2.7090082e+00 2.4355125e+00 -2.7106693e-01 
2.6927557e+00 2.4190845e+00 -2.9368439e-01 
2.6932476e+00 2.4197605e+00 -2.5687698e-01 
2.6893466e+00 2.4157283e+00 -2.8212142e-01 
2.6968689e+00 2.4233904e+00 -2.5941387e-01 
2.6915047e+00 2.4178045e+00 -2.9596344e-01 
2.6846921e+00 2.4111962e+00 -2.5326371e-01 
2.6800542e+00 2.4064724e+00 -2.6729840e-01 
2.6786907e+00 2.4049559e+00 -2.9570514e-01 
2.6948450e+00 2.4212058e+00 -2.8748223e-01 
2.6921897e+00 2.4184842e+00 -2.9789782e-01 
2.7082341e+00 2.4345069e+00 -3.1347314e-01 
2.6828165e+00 2.4092536e+00 -2.6724109e-01 
2.6702745e+00 2.3967199e+00 -2.5425392e-01 
2.6685247e+00 2.3948557e+00 -2.7757648e-01 
2.6666183e+00 2.3928854e+00 -2.9017425e-01 
2.6704280e+00 2.3968883e+00 -2.5533855e-01 
2.6593270e+00 2.3856988e+00 -2.6412225e-01 
2.6691813e+00 2.3954279e+00 -2.9251981e-01 
2.6580069e+00 2.3844538e+00 -2.4905682e-01 
2.6522720e+00 2.3784754e+00 -2.9215580e-01 
2.6478667e+00 2.3741519e+00 -2.7619693e-01 
2.6494784e+00 2.3758879e+00 -2.5101018e-01 
2.6561015e+00 2.3824811e+00 -2.6335719e-01 
2.6650295e+00 2.3913133e+00 -2.8412893e-01 
2.6770482e+00 2.4032331e+00 -3.0917034e-01 
2.6399438e+00 2.3661530e+00 -2.8658724e-01 
2.6594510e+00 2.3856628e+00 -2.9420626e-01 
2.6384706e+00 2.3648088e+00 -2.6092359e-01 
2.6434543e+00 2.3698642e+00 -2.5119346e-01 
2.6416709e+00 2.3678622e+00 -2.8863245e-01 
2.6269281e+00 2.3531823e+00 -2.7320355e-01 
2.6285574e+00 2.3549438e+00 -2.4775217e-01 
2.6307828e+00 2.3571854e+00 -2.4477333e-01 
2.6253004e+00 2.3514531e+00 -2.8852928e-01 
2.6288462e+00 2.3551812e+00 -2.5941166e-01 
2.6174841e+00 2.3437996e+00 -2.5771958e-01 
2.6352744e+00 2.3615096e+00 -2.7883667e-01 
2.6459165e+00 2.3720281e+00 -3.0486789e-01 
2.6127057e+00 2.3388717e+00 -2.8292188e-01 
2.6159291e+00 2.3423035e+00 -2.4697679e-01 
2.6292202e+00 2.3553751e+00 -2.9028594e-01 
2.6058633e+00 2.3320892e+00 -2.7019253e-01 
2.6075127e+00 2.3338740e+00 -2.4448170e-01 
2.6130097e+00 2.3391571e+00 -2.8464484e-01 
2.6029980e+00 2.3293743e+00 -2.4041405e-01 
2.5963712e+00 2.3226621e+00 -2.5450635e-01 
2.5977547e+00 2.3238738e+00 -2.8482106e-01 
2.6010294e+00 2.3273335e+00 -2.5540245e-01 
2.5846751e+00 2.3108828e+00 -2.6716974e-01 
2.5863378e+00 2.3126762e+00 -2.4118936e-01 
2.5848839e+00 2.3110261e+00 -2.7917999e-01 
2.6148431e+00 2.3408973e+00 -3.0056772e-01 
2.5878346e+00 2.3141904e+00 -2.4268807e-01 
2.6001444e+00 2.3263400e+00 -2.7278563e-01 
2.5992312e+00 2.3253417e+00 -2.8644797e-01 
2.5751257e+00 2.3014045e+00 -2.5126562e-01 
2.5838811e+00 2.3099995e+00 -2.8058738e-01 
2.5746355e+00 2.3010025e+00 -2.3598380e-01 
2.5696239e+00 2.2957237e+00 -2.8102449e-01 
2.5768037e+00 2.3030815e+00 -2.5392565e-01 
2.5633409e+00 2.2895439e+00 -2.6412800e-01 
2.5650289e+00 2.2913711e+00 -2.3790406e-01 
2.5564685e+00 2.2826016e+00 -2.7534789e-01 
2.5838213e+00 2.3098321e+00 -2.9629448e-01 
2.5537479e+00 2.2800355e+00 -2.4803546e-01 
2.5591621e+00 2.2855136e+00 -2.3832773e-01 
2.5688231e+00 2.2949090e+00 -2.8216740e-01 
2.5662675e+00 2.2924240e+00 -2.7035704e-01 
2.5546522e+00 2.2807567e+00 -2.7652752e-01 
2.5418875e+00 2.2680984e+00 -2.6108572e-01 
2.5435815e+00 2.2699375e+00 -2.3459700e-01 
2.5456927e+00 2.2720640e+00 -2.3146734e-01 
2.5408912e+00 2.2669895e+00 -2.7714065e-01 
2.5477653e+00 2.2740331e+00 -2.5111878e-01 
2.5322330e+00 2.2585306e+00 -2.4478066e-01 
2.5274553e+00 2.2535908e+00 -2.7143261e-01 
2.5283208e+00 2.2546020e+00 -2.4687155e-01 
2.5528674e+00 2.2788658e+00 -2.9202279e-01 
2.5298920e+00 2.2562580e+00 -2.3389518e-01 
2.5387650e+00 2.2648451e+00 -2.7748495e-01 
2.5202999e+00 2.2465246e+00 -2.5800210e-01 
2.5220015e+00 2.2483668e+00 -2.3126696e-01 
2.5251694e+00 2.2512810e+00 -2.7247801e-01 
2.5354772e+00 2.2616241e+00 -2.6706889e-01 
2.5161364e+00 2.2425327e+00 -2.2688358e-01 
2.5105920e+00 2.2369049e+00 -2.4149722e-01 
2.5115345e+00 2.2376499e+00 -2.7317247e-01 
2.5177312e+00 2.2440221e+00 -2.4702470e-01 
2.4985688e+00 2.2248156e+00 -2.5491971e-01 
2.5003026e+00 2.2266932e+00 -2.2793697e-01 
2.4977832e+00 2.2239578e+00 -2.6741964e-01 
2.5219634e+00 2.2479615e+00 -2.8775674e-01 
2.5000017e+00 2.2264040e+00 -2.2939140e-01 
2.5085454e+00 2.2346406e+00 -2.7322370e-01 
2.4888096e+00 2.2151589e+00 -2.3821937e-01 
2.4952970e+00 2.2214420e+00 -2.6835340e-01 
2.5052719e+00 2.2314332e+00 -2.6424360e-01 
2.4834862e+00 2.2097969e+00 -2.4736464e-01 
2.4859517e+00 2.2124012e+00 -2.2220485e-01 
2.4815292e+00 2.2076883e+00 -2.6910627e-01 
2.4767084e+00 2.2030051e+00 -2.5182575e-01 
2.4866867e+00 2.2130206e+00 -2.4341220e-01 
2.4758763e+00 2.2023230e+00 -2.2309443e-01 
2.4674706e+00 2.1936996e+00 -2.6332864e-01 
2.4668839e+00 2.1932874e+00 -2.3491774e-01 
2.4911525e+00 2.2171853e+00 -2.8349790e-01 
2.4694865e+00 2.1959448e+00 -2.2642285e-01 
2.4773214e+00 2.2034743e+00 -2.6850247e-01 
2.4659789e+00 2.1921713e+00 -2.6449278e-01 
2.4759789e+00 2.2021725e+00 -2.6302716e-01 
2.4547834e+00 2.1811361e+00 -2.4862368e-01 
2.4565330e+00 2.1830273e+00 -2.2126633e-01 
2.4551210e+00 2.1816421e+00 -2.1745390e-01 
2.4510055e+00 2.1772373e+00 -2.6495910e-01 
2.4449794e+00 2.1714387e+00 -2.3163401e-01 
2.4497051e+00 2.1761215e+00 -2.3853748e-01 
2.4367352e+00 2.1630516e+00 -2.5917873e-01 
2.4604506e+00 2.1865475e+00 -2.7924350e-01 
2.4329495e+00 2.1593559e+00 -2.4537316e-01 
2.4347093e+00 2.1612585e+00 -2.1800755e-01 
2.4387352e+00 2.1652856e+00 -2.1996991e-01 
2.4453144e+00 2.1715820e+00 -2.5881380e-01 
2.4399202e+00 2.1661663e+00 -2.6347271e-01 
2.4300022e+00 2.1563036e+00 -2.5948480e-01 
2.4232211e+00 2.1497412e+00 -2.2838591e-01 
2.4244313e+00 2.1510437e+00 -2.1272342e-01 
2.4205356e+00 2.1468582e+00 -2.6085240e-01 
2.4214146e+00 2.1479578e+00 -2.2892031e-01 
2.4112782e+00 2.1377568e+00 -2.4213991e-01 
2.4118919e+00 2.1385174e+00 -2.1335652e-01 
2.4065049e+00 2.1329138e+00 -2.5509477e-01 
2.4298172e+00 2.1560030e+00 -2.7500460e-01 
2.4082787e+00 2.1349401e+00 -2.1513854e-01 
2.4016142e+00 2.1282132e+00 -2.2515364e-01 
2.4042709e+00 2.1306512e+00 -2.5613073e-01 
2.4126081e+00 2.1390431e+00 -2.4645568e-01 
2.4140966e+00 2.1404190e+00 -2.6255208e-01 
2.4020574e+00 2.1284468e+00 -2.5578693e-01 
2.3941936e+00 2.1209209e+00 -2.0810278e-01 
2.3897405e+00 2.1163051e+00 -2.3892322e-01 
2.3914998e+00 2.1182032e+00 -2.1158333e-01 
2.3905692e+00 2.1169856e+00 -2.5679561e-01 
2.3912311e+00 2.1178935e+00 -2.2382769e-01 
2.3801610e+00 2.1068561e+00 -2.2196342e-01 
2.3767755e+00 2.1032944e+00 -2.5105757e-01 
2.3992658e+00 2.1255641e+00 -2.7081579e-01 
2.3782885e+00 2.1050785e+00 -2.1041323e-01 
2.3726518e+00 2.0994537e+00 -2.0717572e-01 
2.3683832e+00 2.0950446e+00 -2.3573022e-01 
2.3745716e+00 2.1010566e+00 -2.5214234e-01 
2.3835907e+00 2.1100233e+00 -2.5836992e-01 
2.3841860e+00 2.1106677e+00 -2.5042659e-01 
2.3644199e+00 2.0912795e+00 -2.0357214e-01 
2.3736024e+00 2.1002202e+00 -2.3511083e-01 
2.3610919e+00 2.0876374e+00 -2.5279939e-01 
2.3588798e+00 2.0856647e+00 -2.1879694e-01 
2.3673449e+00 2.0938623e+00 -2.5097778e-01 
2.3615153e+00 2.0883188e+00 -2.1885063e-01 
2.3471661e+00 2.0739207e+00 -2.3257114e-01 
2.3475239e+00 2.0741875e+00 -2.4709789e-01 
2.3687572e+00 2.0951657e+00 -2.6657429e-01 
2.3487573e+00 2.0756981e+00 -2.0578887e-01 
2.3451595e+00 2.0720973e+00 -2.0277537e-01 
2.3453627e+00 2.0719922e+00 -2.4822587e-01 
2.3377192e+00 2.0646281e+00 -2.1566707e-01 
2.3531375e+00 2.0796807e+00 -2.5418964e-01 
2.3537207e+00 2.0803161e+00 -2.4625133e-01 
2.3350952e+00 2.0621228e+00 -1.9913045e-01 
2.3320982e+00 2.0588012e+00 -2.4886724e-01 
2.3260927e+00 2.0529790e+00 -2.2942072e-01 
2.3278425e+00 2.0548632e+00 -2.0219335e-01 
2.3383572e+00 2.0651741e+00 -2.2789927e-01 
2.3369973e+00 2.0636654e+00 -2.4675187e-01 
2.3322551e+00 2.0592287e+00 -2.1398862e-01 
2.3228073e+00 2.0498035e+00 -2.1348719e-01 
2.3187647e+00 2.0455992e+00 -2.4319591e-01 
2.3167279e+00 2.0437610e+00 -2.1257314e-01 
2.3383484e+00 2.0648868e+00 -2.6235449e-01 
2.3172255e+00 2.0443506e+00 -1.9691028e-01 
2.3196833e+00 2.0467966e+00 -2.0127140e-01 
2.3166418e+00 2.0434363e+00 -2.4437797e-01 
2.3228078e+00 2.0495195e+00 -2.5002488e-01 
2.3233752e+00 2.0501456e+00 -2.4210338e-01 
2.3051920e+00 2.0322247e+00 -2.2630277e-01 
2.3069098e+00 2.0340743e+00 -1.9913585e-01 
2.3049452e+00 2.0320127e+00 -2.1807048e-01 
2.3062081e+00 2.0334263e+00 -1.9479880e-01 
2.3050241e+00 2.0320699e+00 -2.2196735e-01 
2.3036075e+00 2.0304818e+00 -2.4498707e-01 
2.3080914e+00 2.0351138e+00 -2.2383019e-01 
2.3067687e+00 2.0336292e+00 -2.4254596e-01 
2.3034580e+00 2.0306225e+00 -2.0926215e-01 
2.2959023e+00 2.0230842e+00 -2.0949435e-01 
2.2963827e+00 2.0236585e+00 -1.9387890e-01 
2.2904863e+00 2.0175135e+00 -2.3932570e-01 
2.2882171e+00 2.0155144e+00 -1.9743209e-01 
2.2910364e+00 2.0183625e+00 -1.9683927e-01 
2.3080614e+00 2.0347846e+00 -2.5815389e-01 
2.2874970e+00 2.0147390e+00 -2.0845966e-01 
2.2844486e+00 2.0116243e+00 -2.2320558e-01 
2.2884159e+00 2.0154102e+00 -2.4062429e-01 
2.2925975e+00 2.0195248e+00 -2.4588284e-01 
2.2931516e+00 2.0201414e+00 -2.3797849e-01 
2.2752392e+00 2.0025814e+00 -2.0647839e-01 
2.2777848e+00 2.0052271e+00 -1.9055484e-01 
2.2755513e+00 2.0026431e+00 -2.4116360e-01 
2.2750974e+00 2.0024884e+00 -2.0458461e-01 
2.2779396e+00 2.0051768e+00 -2.1981451e-01 
2.2766507e+00 2.0037341e+00 -2.3838699e-01 
2.2638741e+00 1.9912162e+00 -2.2015865e-01 
2.2659490e+00 1.9933687e+00 -2.0649931e-01 
2.2655685e+00 1.9930644e+00 -1.9314970e-01 
2.2626629e+00 1.9899036e+00 -2.3554876e-01 
2.2628379e+00 1.9903854e+00 -1.9251068e-01 
2.2779043e+00 2.0048466e+00 -2.5396726e-01 
2.2606387e+00 1.9878469e+00 -2.3689842e-01 
2.2547288e+00 1.9822488e+00 -2.0347117e-01 
2.2552037e+00 1.9828167e+00 -1.8786652e-01 
2.2489195e+00 1.9763956e+00 -2.1539302e-01 
2.2479930e+00 1.9753034e+00 -2.3741050e-01 
2.2497783e+00 1.9774574e+00 -1.8640214e-01 
2.2625172e+00 1.9896748e+00 -2.4175653e-01 
2.2630591e+00 1.9902797e+00 -2.3386793e-01 
2.2462511e+00 1.9738373e+00 -2.0356001e-01 
2.2448933e+00 1.9724432e+00 -2.1167077e-01 
2.2434320e+00 1.9709615e+00 -2.1712759e-01 
2.2451282e+00 1.9728136e+00 -1.9019480e-01 
2.2471545e+00 1.9747951e+00 -2.0003718e-01 
2.2478971e+00 1.9753983e+00 -2.1578853e-01 
2.2466383e+00 1.9739795e+00 -2.3423019e-01 
2.2353101e+00 1.9627913e+00 -2.3181908e-01 
2.2343633e+00 1.9620856e+00 -2.0050925e-01 
2.2348402e+00 1.9626549e+00 -1.8492945e-01 
2.2350914e+00 1.9629115e+00 -1.8829712e-01 
2.2333002e+00 1.9607469e+00 -2.3327290e-01 
2.2478642e+00 1.9750491e+00 -2.4979445e-01 
2.2231460e+00 1.9508770e+00 -2.1412838e-01 
2.2248495e+00 1.9527340e+00 -1.8727733e-01 
2.2221801e+00 1.9499549e+00 -2.0690192e-01 
2.2208762e+00 1.9484458e+00 -2.3371978e-01 
2.2222013e+00 1.9501553e+00 -1.8231058e-01 
2.2325363e+00 1.9599553e+00 -2.3764206e-01 
2.2330680e+00 1.9605510e+00 -2.2977293e-01 
2.2141469e+00 1.9420736e+00 -1.9759808e-01 