# vtk DataFile Version 4.0
vtk output
ASCII
DATASET UNSTRUCTURED_GRID
POINTS 4496 float
-4.3633327e-01 9.6409470e-01 4.4200001e+01 
-4.3633258e-01 9.6409065e-01 4.4074627e+01 
-3.2152572e-01 9.1279918e-01 4.4200001e+01 
-3.8534868e-01 8.4052670e-01 4.4200001e+01 
-3.9589554e-01 8.5545403e-01 4.4010014e+01 
-3.2616228e-01 9.1667932e-01 4.4011734e+01 
-4.3633190e-01 9.6408653e-01 4.3948376e+01 
-2.1293370e-01 8.4677851e-01 4.4200001e+01 
-2.9042658e-01 7.3813015e-01 4.4200001e+01 
-2.1010752e-01 8.4669363e-01 4.4073502e+01 
-2.8908840e-01 7.3604190e-01 4.4072292e+01 
-3.9589015e-01 8.5505831e-01 4.3883316e+01 
-3.2487559e-01 9.1697580e-01 4.3885036e+01 
-2.0722924e-01 8.4660655e-01 4.3944645e+01 
-1.1981077e-01 7.7773046e-01 4.4200001e+01 
-2.8772619e-01 7.3391593e-01 4.3942276e+01 
-4.3633121e-01 9.6408242e-01 4.3821228e+01 
-1.9739023e-01 6.6468561e-01 4.4200001e+01 
-2.9444304e-01 7.8727525e-01 4.3879974e+01 
-8.7554991e-02 7.5255024e-01 4.4042213e+01 
-1.6445170e-01 6.4084798e-01 4.4041008e+01 
-3.2357255e-01 9.1726828e-01 4.3757431e+01 
-3.9587301e-01 8.5463828e-01 4.3755711e+01 
-2.0429766e-01 8.4651643e-01 4.3813354e+01 
-2.8633916e-01 7.3175091e-01 4.3809875e+01 
-2.6899619e-02 6.8901783e-01 4.4200001e+01 
-1.0567340e-01 7.7152997e-01 4.3875790e+01 
-4.3633053e-01 9.6407831e-01 4.3693161e+01 
-8.7133333e-02 5.9509218e-01 4.4200001e+01 
-1.8777622e-01 6.5475601e-01 4.3873402e+01 
-2.0131156e-01 8.4642249e-01 4.3679543e+01 
-3.2225290e-01 9.1755641e-01 4.3628902e+01 
-3.9584404e-01 8.5419410e-01 4.3627178e+01 
-1.0114321e-03 6.6670936e-01 4.3939713e+01 
-2.8492665e-01 7.2954547e-01 4.3675007e+01 
-1.0131179e-01 7.7015632e-01 4.3743176e+01 
-6.0682178e-02 5.7631296e-01 4.3938457e+01 
3.9444737e-02 6.2338209e-01 4.4053139e+01 
-1.8470748e-01 6.5131217e-01 4.3739727e+01 
-7.0938184e-03 5.4737431e-01 4.4052326e+01 
-4.3632981e-01 9.6407413e-01 4.3564159e+01 
7.6947339e-02 5.8804804e-01 4.4200001e+01 
-1.2721874e-02 6.8194175e-01 4.3817982e+01 
-7.7214435e-02 5.8474159e-01 4.3819649e+01 
4.0195532e-02 5.2425718e-01 4.4200001e+01 
-1.9826968e-01 8.4632379e-01 4.3543118e+01 
-9.6842363e-02 7.6872379e-01 4.3607994e+01 
-3.2091641e-01 9.1783977e-01 4.3499420e+01 
-3.9580306e-01 8.5372573e-01 4.3497700e+01 
-2.8348783e-01 7.2729832e-01 4.3537586e+01 
-1.8155001e-01 6.4778340e-01 4.3603539e+01 
1.5678726e-01 5.2239102e-01 4.4060219e+01 
1.0298219e-02 6.6009766e-01 4.3674484e+01 
1.3250886e-01 4.7546524e-01 4.4058990e+01 
-4.3632913e-01 9.6407002e-01 4.3434200e+01 
-5.0139543e-02 5.6696451e-01 4.3671154e+01 
1.3504514e-01 5.4209155e-01 4.3856747e+01 
1.0361936e-01 4.8715758e-01 4.3855240e+01 
2.0846681e-01 4.8028421e-01 4.4200001e+01 
1.9279444e-01 4.4799727e-01 4.4200001e+01 
-9.2261828e-02 7.6722860e-01 4.3470158e+01 
-1.4701239e-03 6.7547697e-01 4.3552124e+01 
-1.9517080e-01 8.4621930e-01 4.3403992e+01 
-3.1956279e-01 9.1811794e-01 4.3368977e+01 
-3.9574999e-01 8.5323322e-01 4.3367252e+01 
-1.7830023e-01 6.4416617e-01 4.3464752e+01 
-6.7131944e-02 5.7555372e-01 4.3547829e+01 
-2.8202194e-01 7.2500783e-01 4.3397518e+01 
-4.3632844e-01 9.6406585e-01 4.3303261e+01 
1.5138821e-01 5.3037512e-01 4.3609200e+01 
1.2119007e-01 4.7490793e-01 4.3606068e+01 
-8.7566733e-02 7.6566672e-01 4.3329563e+01 
-1.7495437e-01 6.4045686e-01 4.3323273e+01 
-3.1819177e-01 9.1839045e-01 4.3237537e+01 
-3.9568463e-01 8.5271639e-01 4.3235813e+01 
2.2269404e-02 6.5294570e-01 4.3398811e+01 
-1.9201367e-01 8.4610778e-01 4.3262066e+01 
-3.8899176e-02 5.5709696e-01 4.3393635e+01 
-2.8052819e-01 7.2267252e-01 4.3254715e+01 
3.7877345e-01 3.8273901e-01 4.4200001e+01 
-4.3632776e-01 9.6406174e-01 4.3171322e+01 
3.9241230e-01 3.7329337e-01 4.3965439e+01 
1.0283732e-02 6.6872352e-01 4.3271511e+01 
-5.6385640e-02 5.6585240e-01 4.3265472e+01 
-8.2753494e-02 7.6403379e-01 4.3186119e+01 
-4.0345609e-01 8.6371827e-01 4.3104889e+01 
-3.1680310e-01 9.1865683e-01 4.3105087e+01 
-1.7150842e-01 6.3665158e-01 4.3179005e+01 
-1.8879703e-01 8.4598809e-01 4.3117241e+01 
-2.7900568e-01 7.2029078e-01 4.3109074e+01 
4.0610775e-01 3.6380205e-01 4.3729839e+01 
1.6776134e-01 5.1882964e-01 4.3331150e+01 
-4.3632707e-01 9.6405768e-01 4.3038357e+01 
1.4031014e-01 4.6124566e-01 4.3307755e+01 
3.4952711e-02 6.4519531e-01 4.3111935e+01 
-7.7818394e-02 7.6232505e-01 4.3039719e+01 
-3.1539652e-01 9.1891652e-01 4.2971603e+01 
-3.9551663e-01 8.5160977e-01 4.2969879e+01 
-2.6899155e-02 5.4666573e-01 4.3105160e+01 
-1.6795819e-01 6.3274628e-01 4.3031849e+01 
-1.8551964e-01 8.4585863e-01 4.2969406e+01 
4.1985780e-01 3.5425979e-01 4.3493168e+01 
-2.7745360e-01 7.1786088e-01 4.2960495e+01 
-4.3632638e-01 9.6405357e-01 4.2904346e+01 
2.2723136e-02 6.6139150e-01 4.2979332e+01 
-4.4916678e-02 5.5559248e-01 4.2971806e+01 
-3.1397179e-01 9.1916907e-01 4.2837063e+01 
-3.9541367e-01 8.5101974e-01 4.2835335e+01 
-7.2757579e-02 7.6053542e-01 4.2890255e+01 
-1.6429928e-01 6.2873662e-01 4.2881699e+01 
1.8463810e-01 5.0694346e-01 4.3035332e+01 
-1.8218029e-01 8.4571803e-01 4.2818455e+01 
1.5503895e-01 4.5003417e-01 4.3027725e+01 
-2.7587104e-01 7.1538109e-01 4.2808868e+01 
4.3366045e-01 3.4466109e-01 4.3255390e+01 
-4.3632573e-01 9.6404958e-01 4.2769268e+01 
-3.8429454e-01 8.3484912e-01 4.2710606e+01 
-3.1252861e-01 9.1941386e-01 4.2701439e+01 
4.8404284e-02 6.3678014e-01 4.2813030e+01 
-1.4070326e-02 5.3562075e-01 4.2804932e+01 
-6.7567028e-02 7.5865942e-01 4.2737610e+01 
-1.6052702e-01 6.2461799e-01 4.2728443e+01 
-1.7877772e-01 8.4556442e-01 4.2664265e+01 
-4.3632504e-01 9.6404558e-01 4.2633099e+01 
-2.7425703e-01 7.1284944e-01 4.2654083e+01 
4.4751364e-01 3.3500037e-01 4.3016472e+01 
3.5901129e-02 6.5341437e-01 4.2674721e+01 
-3.7959340e-01 8.2794034e-01 4.2568317e+01 
-3.1106678e-01 9.1965032e-01 4.2564713e+01 
-3.2659348e-02 5.4472327e-01 4.2665997e+01 
2.0396979e-01 4.9291667e-01 4.2740131e+01 
-6.2242586e-02 7.5669110e-01 4.2581669e+01 
1.7765003e-01 4.3475360e-01 4.2732578e+01 
-1.5663649e-01 6.2038553e-01 4.2571964e+01 
-4.3632439e-01 9.6404165e-01 4.2495808e+01 
-1.7531081e-01 8.4539592e-01 4.2506718e+01 
-2.7261066e-01 7.1026409e-01 4.2496017e+01 
-3.0958602e-01 9.1987789e-01 4.2426853e+01 
-3.7859210e-01 8.2613736e-01 4.2421188e+01 
4.6141517e-01 3.2527190e-01 4.2776375e+01 
6.2686495e-02 6.2762415e-01 4.2501175e+01 
-3.3570320e-04 5.2390522e-01 4.2492062e+01 
-5.6779940e-02 7.5462401e-01 4.2422298e+01 
-4.3632373e-01 9.6403772e-01 4.2357380e+01 
-1.5262254e-01 6.1603409e-01 4.2412144e+01 
-1.7177837e-01 8.4521037e-01 4.2345684e+01 
-2.7093092e-01 7.0762289e-01 4.2334549e+01 
-3.0808610e-01 9.2009580e-01 4.2287842e+01 
-3.8275370e-01 8.3137155e-01 4.2275047e+01 
4.9876589e-02 6.4471585e-01 4.2356720e+01 
-1.9539909e-02 5.3318781e-01 4.2347118e+01 
-4.3632311e-01 9.6403396e-01 4.2217781e+01 
2.1959943e-01 4.8236796e-01 4.2385345e+01 
-5.1174615e-02 7.5245124e-01 4.2259373e+01 
1.9034323e-01 4.2346162e-01 4.2378918e+01 
-1.4847966e-01 6.1155808e-01 4.2248856e+01 
4.7536272e-01 3.1546980e-01 4.2535065e+01 
-1.6817927e-01 8.4500539e-01 4.2181026e+01 
-2.6921678e-01 7.0492369e-01 4.2169544e+01 
-3.0656675e-01 9.2030340e-01 4.2147648e+01 
-3.9470181e-01 8.4769493e-01 4.2145920e+01 
7.7868804e-02 6.1763972e-01 4.2175373e+01 
-4.3632248e-01 9.6403021e-01 4.2076988e+01 
1.4390758e-02 5.1145434e-01 4.2165581e+01 
-4.5421973e-02 7.5016522e-01 4.2092751e+01 
-1.4420210e-01 6.0695171e-01 4.2081959e+01 
-3.0502778e-01 9.2049998e-01 4.2006248e+01 
-4.0175444e-01 8.5747409e-01 4.2004128e+01 
-1.6451253e-01 8.4477836e-01 4.2012604e+01 
4.8935395e-01 3.0558801e-01 4.2292507e+01 
-2.6746723e-01 7.0216429e-01 4.2000870e+01 
6.4714879e-02 6.3520777e-01 4.2024277e+01 
-4.3632188e-01 9.6402657e-01 4.1934975e+01 
-5.4755262e-03 5.2092212e-01 4.2014156e+01 
-2.3078828e-01 8.1064087e-01 4.1931458e+01 
2.3550548e-01 4.7116494e-01 4.2073269e+01 
2.0610523e-01 4.1123796e-01 4.2066772e+01 
-3.9517213e-02 7.4775779e-01 4.1922287e+01 
-1.3978374e-01 6.0220873e-01 4.1911320e+01 
-3.0346894e-01 9.2068475e-01 4.1863613e+01 
-3.9432141e-01 8.4618556e-01 4.1861881e+01 
-1.6077711e-01 8.4452641e-01 4.1840263e+01 
-2.6568118e-01 6.9934219e-01 4.1828377e+01 
-4.3632129e-01 9.6402299e-01 4.1791718e+01 
5.0338638e-01 2.9562023e-01 4.2048656e+01 
9.4028555e-02 6.0672593e-01 4.1834507e+01 
3.0205652e-02 4.9819478e-01 4.1824417e+01 
-3.8116732e-01 8.2744831e-01 4.1725647e+01 
-3.0189002e-01 9.2085695e-01 4.1719719e+01 
-3.3455357e-02 7.4522001e-01 4.1747829e+01 
-1.3521814e-01 5.9732240e-01 4.1736786e+01 
-4.3632072e-01 9.6401960e-01 4.1647179e+01 
-1.5697217e-01 8.4424627e-01 4.1663853e+01 
-2.6385748e-01 6.9645494e-01 4.1651920e+01 
8.0488607e-02 6.2478805e-01 4.1676235e+01 
2.6870471e-01 4.4547972e-01 4.1752304e+01 
9.6269641e-03 5.0785345e-01 4.1665993e+01 
2.4764967e-01 3.8646612e-01 4.1743168e+01 
-3.0029076e-01 9.2101562e-01 4.1574532e+01 
-3.9388368e-01 8.4456980e-01 4.1572796e+01 
5.1745731e-01 2.8556010e-01 4.1803486e+01 
-2.7231261e-02 7.4254233e-01 4.1569210e+01 
-1.3049847e-01 5.9228569e-01 4.1558201e+01 
-4.3632016e-01 9.6401632e-01 4.1501339e+01 
-1.5309690e-01 8.4393430e-01 4.1483204e+01 
-2.6199502e-01 6.9349992e-01 4.1471333e+01 
-2.9867104e-01 9.2115986e-01 4.1428024e+01 
-3.9364263e-01 8.4372103e-01 4.1426289e+01 
1.1125199e-01 5.9476525e-01 4.1477348e+01 
4.7217656e-02 4.8404291e-01 4.1467384e+01 
-4.3631962e-01 9.6401310e-01 4.1354160e+01 
-2.0839609e-02 7.3971421e-01 4.1386261e+01 
-1.2561750e-01 5.8709091e-01 4.1375404e+01 
5.3156406e-01 2.7540097e-01 4.1556946e+01 
-1.4915068e-01 8.4358656e-01 4.1298138e+01 
-2.9703063e-01 9.2128879e-01 4.1280167e+01 
-3.9338648e-01 8.4284443e-01 4.1278431e+01 
-2.6009262e-01 6.9047421e-01 4.1286449e+01 
2.9365057e-01 4.2687622e-01 4.1391586e+01 
9.7278498e-02 6.1333776e-01 4.1311302e+01 
2.7470219e-01 3.6807936e-01 4.1382729e+01 
2.5872495e-02 4.9389899e-01 4.1301384e+01 
-4.3631911e-01 9.6401012e-01 4.1205620e+01 
-1.4274905e-02 7.3672432e-01 4.1198803e+01 
-1.2056758e-01 5.8173001e-01 4.1188221e+01 
-2.9536936e-01 9.2140132e-01 4.1130928e+01 
[...]
POINT_DATA 4496
FIELD FieldData 5
DISPLACEMENT 3 4496  float
1.2006678e-01 1.1106987e-01 -8.4577064e-04 
1.1945485e-01 1.1044204e-01 -8.4268616e-04 
1.2010424e-01 1.1115471e-01 -1.1498862e-03 
1.2015978e-01 1.1110883e-01 -4.7647272e-04 
1.1922128e-01 1.1014953e-01 -4.9501029e-04 
1.1918244e-01 1.1020847e-01 -1.1420458e-03 
1.1883865e-01 1.0980985e-01 -8.3957700e-04 
1.2015294e-01 1.1123519e-01 -1.3499688e-03 
1.2023622e-01 1.1117975e-01 -4.2773475e-04 
1.1953553e-01 1.1060378e-01 -1.3602537e-03 
1.1961442e-01 1.1054122e-01 -4.2069642e-04 
1.1860320e-01 1.0951511e-01 -4.8995577e-04 
1.1856383e-01 1.0957497e-01 -1.1467135e-03 
1.1890662e-01 1.0996059e-01 -1.3707163e-03 
1.2020414e-01 1.1130439e-01 -1.4593480e-03 
1.1898140e-01 1.0989118e-01 -4.1354491e-04 
1.1821811e-01 1.0917321e-01 -8.3644001e-04 
1.2029076e-01 1.1124895e-01 -5.1466917e-04 
1.1863698e-01 1.0957359e-01 -6.4622727e-04 
1.1945266e-01 1.1053818e-01 -1.4870510e-03 
1.1953233e-01 1.1047716e-01 -5.5239204e-04 
1.1794085e-01 1.0893697e-01 -1.1513768e-03 
1.1798073e-01 1.0887621e-01 -4.8483405e-04 
1.1826586e-01 1.0930526e-01 -1.3813579e-03 
1.1833677e-01 1.0922922e-01 -4.0626118e-04 
1.2027026e-01 1.1137372e-01 -1.4692877e-03 
1.1862618e-01 1.0969117e-01 -1.4894322e-03 
1.1759319e-01 1.0853203e-01 -8.3326228e-04 
1.2034220e-01 1.1133074e-01 -7.0497819e-04 
1.1870394e-01 1.0962053e-01 -5.0396845e-04 
1.1761285e-01 1.0863739e-01 -1.3921679e-03 
1.1731341e-01 1.0829440e-01 -1.1560866e-03 
1.1735382e-01 1.0823277e-01 -4.7964888e-04 
1.1901630e-01 1.1008937e-01 -1.4777519e-03 
1.1768013e-01 1.0855498e-01 -3.9885897e-04 
1.1797990e-01 1.0903025e-01 -1.5005973e-03 
1.1907938e-01 1.1004050e-01 -7.3381065e-04 
1.1960231e-01 1.1068771e-01 -1.4613336e-03 
1.1805398e-01 1.0895342e-01 -4.9848092e-04 
1.1965654e-01 1.1065048e-01 -8.5353892e-04 
1.1696373e-01 1.0788630e-01 -8.3006837e-04 
1.2034557e-01 1.1145129e-01 -1.4712960e-03 
1.1841069e-01 1.0947088e-01 -1.4937927e-03 
1.1849321e-01 1.0943324e-01 -6.9233705e-04 
1.2039441e-01 1.1142513e-01 -9.7246474e-04 
1.1694714e-01 1.0795651e-01 -1.4031441e-03 
1.1732117e-01 1.0835657e-01 -1.5119171e-03 
1.1668141e-01 1.0764720e-01 -1.1608006e-03 
1.1672234e-01 1.0758466e-01 -4.7433787e-04 
1.1701113e-01 1.0786805e-01 -3.9132286e-04 
1.1739186e-01 1.0827382e-01 -4.9294205e-04 
1.1971202e-01 1.1081061e-01 -1.5293270e-03 
1.1772650e-01 1.0876931e-01 -1.4934208e-03 
1.1974189e-01 1.1078723e-01 -1.1757843e-03 
1.1632971e-01 1.0723581e-01 -8.2681724e-04 
1.1778142e-01 1.0870960e-01 -7.3202146e-04 
1.1870402e-01 1.0977515e-01 -1.5167437e-03 
1.1873864e-01 1.0974528e-01 -1.0881796e-03 
1.2042576e-01 1.1154932e-01 -1.5744746e-03 
1.2045044e-01 1.1153822e-01 -1.3362640e-03 
1.1664957e-01 1.0766970e-01 -1.5234001e-03 
1.1711781e-01 1.0814770e-01 -1.5098670e-03 
1.1626832e-01 1.0726226e-01 -1.4142937e-03 
1.1604475e-01 1.0699523e-01 -1.1655565e-03 
1.1608624e-01 1.0693184e-01 -4.6898084e-04 
1.1671714e-01 1.0758136e-01 -4.8739181e-04 
1.1717311e-01 1.0807947e-01 -6.8904134e-04 
1.1632928e-01 1.0716798e-01 -3.8366832e-04 
1.1569096e-01 1.0658059e-01 -8.2355639e-04 
1.1750416e-01 1.0854717e-01 -1.5318953e-03 
1.1753117e-01 1.0851013e-01 -1.1066220e-03 
1.1596465e-01 1.0696922e-01 -1.5349967e-03 
1.1602939e-01 1.0687556e-01 -4.8177637e-04 
1.1540338e-01 1.0633849e-01 -1.1702998e-03 
1.1544543e-01 1.0627420e-01 -4.6354369e-04 
1.1638624e-01 1.0739754e-01 -1.5093145e-03 
1.1557595e-01 1.0655412e-01 -1.4255856e-03 
1.1643402e-01 1.0732818e-01 -7.3084468e-04 
1.1563417e-01 1.0645436e-01 -3.7587830e-04 
1.2049772e-01 1.1167568e-01 -1.9182608e-03 
1.1504745e-01 1.0592048e-01 -8.2028104e-04 
1.1935946e-01 1.1051058e-01 -1.9318694e-03 
1.1575328e-01 1.0675117e-01 -1.5265422e-03 
1.1580206e-01 1.0667364e-01 -6.8620907e-04 
1.1526597e-01 1.0625465e-01 -1.5467368e-03 
1.1479857e-01 1.0561338e-01 -4.7747992e-04 
1.1475712e-01 1.0567674e-01 -1.1751100e-03 
1.1532822e-01 1.0615604e-01 -4.7615395e-04 
1.1486956e-01 1.0583169e-01 -1.4370242e-03 
1.1492541e-01 1.0572677e-01 -3.6790528e-04 
1.1821605e-01 1.0934018e-01 -1.9454921e-03 
1.1615533e-01 1.0716651e-01 -1.5473050e-03 
1.1439902e-01 1.0525544e-01 -8.1698113e-04 
1.1608482e-01 1.0703007e-01 -1.1244286e-03 
1.1499200e-01 1.0597047e-01 -1.5253784e-03 
1.1455304e-01 1.0552554e-01 -1.5585769e-03 
1.1410606e-01 1.0501008e-01 -1.1798587e-03 
1.1414916e-01 1.0494405e-01 -4.5241782e-04 
1.1503375e-01 1.0589281e-01 -7.3035475e-04 
1.1461305e-01 1.0542227e-01 -4.7045943e-04 
1.1414865e-01 1.0509439e-01 -1.4485937e-03 
1.1706737e-01 1.0816419e-01 -1.9590922e-03 
1.1420242e-01 1.0498466e-01 -3.5984657e-04 
1.1374576e-01 1.0458530e-01 -8.1358245e-04 
1.1433307e-01 1.0529764e-01 -1.5433289e-03 
1.1437652e-01 1.0521223e-01 -6.8393530e-04 
1.1344995e-01 1.0433830e-01 -1.1846846e-03 
1.1349365e-01 1.0427147e-01 -4.4678297e-04 
1.1382537e-01 1.0478134e-01 -1.5705343e-03 
1.1388355e-01 1.0467383e-01 -4.6479222e-04 
1.1472020e-01 1.0569745e-01 -1.5630269e-03 
1.1341270e-01 1.0434172e-01 -1.4602829e-03 
1.1472613e-01 1.0563862e-01 -1.1335348e-03 
1.1346483e-01 1.0422768e-01 -3.5166211e-04 
1.1591338e-01 1.0698282e-01 -1.9727468e-03 
1.1308736e-01 1.0391022e-01 -8.1018597e-04 
1.1289759e-01 1.0365637e-01 -4.1722841e-04 
1.1278880e-01 1.0366149e-01 -1.1894198e-03 
1.1353997e-01 1.0448434e-01 -1.5415262e-03 
1.1357692e-01 1.0439987e-01 -7.3069154e-04 
1.1308239e-01 1.0402160e-01 -1.5825827e-03 
1.1313906e-01 1.0391020e-01 -4.5902815e-04 
1.1266129e-01 1.0357337e-01 -1.4720926e-03 
1.1242389e-01 1.0322990e-01 -8.0671272e-04 
1.1271199e-01 1.0345507e-01 -3.4328419e-04 
1.1475388e-01 1.0579580e-01 -1.9862405e-03 
1.1285323e-01 1.0378322e-01 -1.5601377e-03 
1.1220931e-01 1.0294899e-01 -4.0218778e-04 
1.1212248e-01 1.0297938e-01 -1.1940962e-03 
1.1289261e-01 1.0369147e-01 -6.8231294e-04 
1.1328999e-01 1.0423382e-01 -1.5800566e-03 
1.1232372e-01 1.0324576e-01 -1.5947587e-03 
1.1329687e-01 1.0417777e-01 -1.1605155e-03 
1.1237920e-01 1.0313089e-01 -4.5340369e-04 
1.1175525e-01 1.0254427e-01 -8.0310949e-04 
1.1189369e-01 1.0278855e-01 -1.4840817e-03 
1.1194345e-01 1.0266664e-01 -3.3480921e-04 
1.1145081e-01 1.0229198e-01 -1.1988663e-03 
1.1149389e-01 1.0221515e-01 -3.9461223e-04 
1.1358908e-01 1.0460357e-01 -1.9996038e-03 
1.1202604e-01 1.0293505e-01 -1.5576186e-03 
1.1205956e-01 1.0284542e-01 -7.3189929e-04 
1.1154864e-01 1.0245328e-01 -1.6068651e-03 
1.1108122e-01 1.0185342e-01 -7.9955708e-04 
1.1160330e-01 1.0233535e-01 -4.4764165e-04 
1.1110947e-01 1.0198681e-01 -1.4960899e-03 
1.1115865e-01 1.0186169e-01 -3.2617457e-04 
1.1077387e-01 1.0159927e-01 -1.2035699e-03 
1.1077843e-01 1.0148294e-01 -3.9702689e-04 
1.1130949e-01 1.0220359e-01 -1.5767796e-03 
1.1134635e-01 1.0210735e-01 -6.8138778e-04 
1.1040185e-01 1.0115726e-01 -7.9594983e-04 
1.1156733e-01 1.0247048e-01 -1.5949834e-03 
1.1075664e-01 1.0164363e-01 -1.6190087e-03 
1.1158003e-01 1.0241812e-01 -1.1578160e-03 
1.1081091e-01 1.0152313e-01 -4.4189967e-04 
1.1241850e-01 1.0340542e-01 -2.0127543e-03 
1.1030798e-01 1.0116755e-01 -1.5081853e-03 
1.1035698e-01 1.0103966e-01 -3.1739703e-04 
1.1009157e-01 1.0090123e-01 -1.2082043e-03 
1.1013802e-01 1.0083038e-01 -4.1713865e-04 
1.1044583e-01 1.0131833e-01 -1.5735811e-03 
1.0971701e-01 1.0045552e-01 -7.9234981e-04 
1.1047740e-01 1.0122535e-01 -7.3424680e-04 
1.0994712e-01 1.0081620e-01 -1.6311845e-03 
1.1000152e-01 1.0069357e-01 -4.3605544e-04 
1.0940349e-01 1.0019736e-01 -1.2130273e-03 
1.0944092e-01 1.0011856e-01 -4.2821644e-04 
1.0948858e-01 1.0033016e-01 -1.5203331e-03 
1.1124234e-01 1.0220166e-01 -2.0257558e-03 
1.0953804e-01 1.0020012e-01 -3.0835537e-04 
1.0969738e-01 1.0055457e-01 -1.5931659e-03 
1.0902630e-01 9.9748090e-02 -7.8877783e-04 
1.0973323e-01 1.0045565e-01 -6.8138534e-04 
1.0911993e-01 9.9879026e-02 -1.0254408e-03 
1.1005463e-01 1.0092279e-01 -1.6090283e-03 
1.1006750e-01 1.0087019e-01 -1.1665837e-03 
1.0911945e-01 9.9970452e-02 -1.6433910e-03 
1.0917436e-01 9.9846184e-02 -4.3018794e-04 
1.0870972e-01 9.9487841e-02 -1.2177431e-03 
1.0875724e-01 9.9415407e-02 -4.0486347e-04 
1.0865061e-01 9.9474132e-02 -1.5326181e-03 
1.0870101e-01 9.9342078e-02 -2.9912445e-04 
1.0832993e-01 9.9034838e-02 -7.8502379e-04 
1.1006074e-01 1.0099279e-01 -2.0385962e-03 
1.0879443e-01 9.9629462e-02 -1.5892840e-03 
1.0882574e-01 9.9535160e-02 -7.3773047e-04 
1.0810868e-01 9.8746873e-02 -3.7225045e-04 
1.0801034e-01 9.8772690e-02 -1.2222842e-03 
1.0827278e-01 9.9105395e-02 -1.6555956e-03 
1.0832869e-01 9.8980032e-02 -4.2424886e-04 
1.0762782e-01 9.8315768e-02 -7.8110612e-04 
1.0779341e-01 9.8598450e-02 -1.5449191e-03 
1.0784505e-01 9.8465107e-02 -2.8987566e-04 
1.0801161e-01 9.8830998e-02 -1.6091346e-03 
1.0851037e-01 9.9345289e-02 -1.6349391e-03 
1.0804808e-01 9.8731369e-02 -6.8232493e-04 
1.0850935e-01 9.9285580e-02 -1.2382643e-03 
1.0730492e-01 9.8051623e-02 -1.2269028e-03 
1.0735369e-01 9.7977616e-02 -3.9201925e-04 
1.0887392e-01 9.9779256e-02 -2.0511544e-03 
1.0740656e-01 9.8220542e-02 -1.6677225e-03 
1.0746407e-01 9.8094754e-02 -4.1852510e-04 
1.0691981e-01 9.7591117e-02 -7.7722274e-04 
1.0691617e-01 9.7702660e-02 -1.5571044e-03 
1.0696970e-01 9.7568668e-02 -2.8051873e-04 
1.0659372e-01 9.7324736e-02 -1.2313612e-03 
1.0664300e-01 9.7250178e-02 -3.8564677e-04 
1.0706636e-01 9.7863004e-02 -1.6044251e-03 
1.0709938e-01 9.7769782e-02 -7.4239814e-04 
1.0620570e-01 9.6860699e-02 -7.7342917e-04 
1.0652000e-01 9.7315311e-02 -1.6796556e-03 
1.0657961e-01 9.7189568e-02 -4.1256170e-04 
1.0768096e-01 9.8559476e-02 -2.0631938e-03 
1.0601825e-01 9.6786097e-02 -1.5692713e-03 
1.0587638e-01 9.6592091e-02 -1.2358623e-03 
1.0592606e-01 9.6516609e-02 -3.7899709e-04 
1.0607421e-01 9.6651882e-02 -2.7063774e-04 
1.0676932e-01 9.7566493e-02 -1.6550384e-03 
1.0624660e-01 9.7027220e-02 -1.6244698e-03 
1.0676920e-01 9.7509928e-02 -1.2704073e-03 
1.0628600e-01 9.6929550e-02 -6.8422791e-04 
1.0548554e-01 9.6123829e-02 -7.6949643e-04 
1.0561250e-01 9.6388780e-02 -1.6916414e-03 
1.0567445e-01 9.6263707e-02 -4.0660665e-04 
1.0515275e-01 9.5852852e-02 -1.2404013e-03 
1.0520320e-01 9.5776811e-02 -3.7242370e-04 
1.0509878e-01 9.5847689e-02 -1.5815351e-03 
1.0515776e-01 9.5714122e-02 -2.6082154e-04 
1.0648236e-01 9.7334564e-02 -2.0750128e-03 
1.0475896e-01 9.5380969e-02 -7.6559902e-04 
1.0525584e-01 9.6013300e-02 -1.6189975e-03 
1.0529240e-01 9.5923364e-02 -7.4856193e-04 
1.0442284e-01 9.5107697e-02 -1.2448996e-03 
1.0447373e-01 9.5030792e-02 -3.6566335e-04 
1.0468281e-01 9.5440015e-02 -1.7032805e-03 
1.0474819e-01 9.5316522e-02 -4.0077430e-04 
1.0402615e-01 9.4631702e-02 -7.6147093e-04 
1.0415702e-01 9.4886877e-02 -1.5935157e-03 
1.0421939e-01 9.4754517e-02 -2.5064874e-04 
1.0494468e-01 9.5703550e-02 -1.6763245e-03 
1.0494763e-01 9.5652536e-02 -1.3058782e-03 
1.0431748e-01 9.5055096e-02 -1.6256039e-03 
1.0527824e-01 9.6104681e-02 -2.0864976e-03 
1.0368661e-01 9.4356060e-02 -1.2490405e-03 
1.0373811e-01 9.4278768e-02 -3.5908402e-04 
1.0435671e-01 9.4968222e-02 -7.5211510e-04 
1.0373067e-01 9.4468586e-02 -1.7147725e-03 
1.0379956e-01 9.4347104e-02 -3.9485306e-04 
1.0328680e-01 9.3876563e-02 -7.5747201e-04 
1.0319177e-01 9.3902715e-02 -1.6055244e-03 
1.0325885e-01 9.3772426e-02 -2.4035561e-04 
1.0294392e-01 9.3598694e-02 -1.2531881e-03 
1.0299575e-01 9.3520366e-02 -3.5216831e-04 
1.0335619e-01 9.4073825e-02 -1.6321985e-03 
1.0294612e-01 9.3516275e-02 -6.7380647e-04 
1.0339875e-01 9.3990654e-02 -7.5631129e-04 
1.0254100e-01 9.3114808e-02 -7.5318635e-04 
1.0406750e-01 9.4867915e-02 -2.0973468e-03 
1.0343979e-01 9.4165593e-02 -1.6772829e-03 
1.0275474e-01 9.3473502e-02 -1.7255775e-03 
1.0345940e-01 9.4124772e-02 -1.2559963e-03 
1.0282820e-01 9.3355112e-02 -3.8891533e-04 
1.0219445e-01 9.2834279e-02 -1.2570717e-03 
1.0224689e-01 9.2755608e-02 -3.4522169e-04 
1.0220308e-01 9.2894927e-02 -1.6167794e-03 
1.0227456e-01 9.2767239e-02 -2.3032041e-04 
1.0178854e-01 9.2346922e-02 -7.4914208e-04 
1.0237100e-01 9.3068704e-02 -1.6385764e-03 
1.0241738e-01 9.2989944e-02 -7.6075923e-04 
1.0175453e-01 9.2454083e-02 -1.7364762e-03 
1.0143857e-01 9.2063643e-02 -1.2611242e-03 
1.0149147e-01 9.1984354e-02 -3.3815790e-04 
1.0183285e-01 9.2339367e-02 -3.8281645e-04 
1.0285070e-01 9.3626589e-02 -2.1081327e-03 
1.0118896e-01 9.1861956e-02 -1.6285498e-03 
1.0102927e-01 9.1572203e-02 -7.4487575e-04 
1.0213794e-01 9.2800513e-02 -1.4257947e-03 
1.0210790e-01 9.2816159e-02 -1.7483610e-03 
1.0126616e-01 9.1737896e-02 -2.1933515e-04 
1.0136087e-01 9.2038810e-02 -1.6443727e-03 
1.0141157e-01 9.1964871e-02 -7.6585024e-04 
1.0067552e-01 9.1286264e-02 -1.2651774e-03 
1.0072891e-01 9.1206372e-02 -3.3102478e-04 
1.0072860e-01 9.1409013e-02 -1.7470130e-03 
1.0081288e-01 9.1298878e-02 -3.7684885e-04 
1.0026274e-01 9.0790570e-02 -7.4052456e-04 
1.0162821e-01 9.2379592e-02 -2.1177963e-03 
1.0014842e-01 9.0802722e-02 -1.6400843e-03 
1.0023234e-01 9.0683132e-02 -2.0809963e-04 
9.9905841e-02 9.0502702e-02 -1.2683731e-03 
9.9959582e-02 9.0422019e-02 -3.2413271e-04 
1.0091279e-01 9.1551773e-02 -1.4324144e-03 
1.0088327e-01 9.1567971e-02 -1.7574689e-03 
1.0030811e-01 9.0966180e-02 -1.6501312e-03 
1.0035494e-01 9.0888165e-02 -7.6511223e-04 
9.9745631e-02 9.0276405e-02 -8.2930265e-04 
9.9490501e-02 9.0003580e-02 -7.3595368e-04 
9.9684030e-02 9.0345800e-02 -1.7575225e-03 
9.9780045e-02 9.0245195e-02 -3.6379273e-04 
9.9135675e-02 8.9717731e-02 -1.2644941e-03 
9.9189594e-02 8.9637876e-02 -3.1992755e-04 
9.9099621e-02 8.9735717e-02 -1.6502725e-03 
1.0039995e-01 9.1127783e-02 -2.1268767e-03 
9.9201210e-02 8.9632340e-02 -1.9755121e-04 
9.8723955e-02 8.9223199e-02 -7.3181785e-04 
9.9234223e-02 8.9873306e-02 -1.6592445e-03 
9.9310972e-02 8.9821413e-02 -7.3911319e-04 
9.9685244e-02 9.0301946e-02 -1.4407667e-03 
9.9656291e-02 9.0318538e-02 -1.7666382e-03 
9.8721832e-02 8.9233629e-02 -8.2407979e-04 
9.8371491e-02 8.8939622e-02 -1.2603552e-03 
9.8642826e-02 8.9286730e-02 -1.7680434e-03 
9.8425001e-02 8.8859566e-02 -3.1555540e-04 
9.8756433e-02 8.9201540e-02 -3.4736271e-04 
9.7963236e-02 8.8448569e-02 -7.2720618e-04 
9.8069690e-02 8.8688649e-02 -1.6598060e-03 
9.8186836e-02 8.8599622e-02 -1.8727801e-04 
9.9171415e-02 8.9876607e-02 -2.1353592e-03 
9.8200820e-02 8.8822998e-02 -1.6700976e-03 
9.8295346e-02 8.8784195e-02 -7.1185711e-04 
9.7612314e-02 8.8166848e-02 -1.2564317e-03 
9.7665936e-02 8.8087521e-02 -3.1131448e-04 
9.8381147e-02 8.9011803e-02 -1.7084860e-03 
9.8425373e-02 8.8995084e-02 -1.2685163e-03 
9.7620137e-02 8.8247515e-02 -1.7779234e-03 
9.7749017e-02 8.8174842e-02 -3.3128855e-04 
9.7457178e-02 8.7946653e-02 -8.1634329e-04 
9.7207785e-02 8.7680340e-02 -7.2290137e-04 
9.7188652e-02 8.7583855e-02 -1.7688631e-04 
9.7057290e-02 8.7660164e-02 -1.6685912e-03 
9.6859016e-02 8.7400362e-02 -1.2520358e-03 
9.6912421e-02 8.7321721e-02 -3.0719081e-04 
9.7295530e-02 8.7764166e-02 -6.8532868e-04 
9.7185239e-02 8.7791584e-02 -1.6809651e-03 
9.7945102e-02 8.8629350e-02 -2.1434799e-03 
9.6457534e-02 8.6917952e-02 -7.1879855e-04 
9.6757412e-02 8.7165222e-02 -3.1563273e-04 
9.6614778e-02 8.7226950e-02 -1.7871910e-03 
9.7206883e-02 8.7828182e-02 -1.7843188e-03 
9.7123645e-02 8.7675691e-02 -1.2993646e-03 
9.6110791e-02 8.6639836e-02 -1.2475154e-03 
9.6147597e-02 8.6545788e-02 -3.1136276e-04 
9.6206114e-02 8.6584330e-02 -1.6595679e-04 
9.6062392e-02 8.6650603e-02 -1.6773953e-03 
9.5864981e-02 8.6332746e-02 -8.3897723e-04 
9.5712513e-02 8.6160719e-02 -7.1420037e-04 
9.6310809e-02 8.6760439e-02 -6.6000700e-04 
9.6090838e-02 8.6676538e-02 -1.6622174e-03 
9.5780708e-02 8.6172126e-02 -3.0101798e-04 
9.5626757e-02 8.6224131e-02 -1.7957073e-03 
9.5367514e-02 8.5884340e-02 -1.2425830e-03 
9.6721999e-02 8.7386958e-02 -2.1512571e-03 
9.5420510e-02 8.5806422e-02 -2.9859733e-04 
9.5344231e-02 8.5797116e-02 -7.8767666e-04 
9.6004926e-02 8.6539373e-02 -1.3002816e-03 
9.4972625e-02 8.5409634e-02 -7.0990389e-04 
9.5237702e-02 8.5601389e-02 -1.5676238e-04 
9.5084108e-02 8.5657999e-02 -1.6845771e-03 
9.5985383e-02 8.6588196e-02 -1.7917482e-03 
9.5341444e-02 8.5773587e-02 -6.3481025e-04 
9.5206015e-02 8.5783362e-02 -1.7006963e-03 
9.4629474e-02 8.5135028e-02 -1.2380317e-03 
9.4682477e-02 8.5057527e-02 -2.9441909e-04 
9.4819218e-02 8.5195199e-02 -2.8605564e-04 
9.4655268e-02 8.5238874e-02 -1.8032333e-03 
9.4413310e-02 8.4836125e-02 -6.6461257e-04 
9.4237544e-02 8.4663987e-02 -7.0562464e-04 
9.5500253e-02 8.6146943e-02 -2.1580989e-03 
9.4284475e-02 8.4633887e-02 -1.4641274e-04 
9.4121814e-02 8.4682852e-02 -1.6916168e-03 
9.4881505e-02 8.5380256e-02 -1.1659637e-03 
9.4770536e-02 8.5339740e-02 -1.6862273e-03 
9.3896188e-02 8.4391132e-02 -1.2330452e-03 
9.4386719e-02 8.4801905e-02 -6.1061134e-04 
9.3886070e-02 8.4243730e-02 -2.4453815e-04 
9.4241112e-02 8.4805757e-02 -1.7103534e-03 
9.3507022e-02 8.3923437e-02 -7.0154987e-04 
9.3871810e-02 8.4233090e-02 -2.7121429e-04 
9.3699545e-02 8.4270760e-02 -1.8101439e-03 
9.3220554e-02 8.3575785e-02 -2.8632474e-04 
9.3153171e-02 8.3630607e-02 -1.1767193e-03 
9.3345322e-02 8.3681382e-02 -1.3653490e-04 
9.3174741e-02 8.3723955e-02 -1.6980170e-03 
9.4280437e-02 8.4909394e-02 -2.1635734e-03 
9.3004964e-02 8.3446167e-02 -9.2980522e-04 
9.3446128e-02 8.3846092e-02 -5.8719859e-04 
9.3291387e-02 8.3844207e-02 -1.7195712e-03 
9.2781566e-02 8.3188727e-02 -6.9765194e-04 
9.2938192e-02 8.3286829e-02 -2.5761264e-04 
9.3548380e-02 8.4116705e-02 -1.8042104e-03 
9.3574628e-02 8.4098548e-02 -1.4787735e-03 
9.2607178e-02 8.2948096e-02 -2.3455269e-04 
9.2758693e-02 8.3317876e-02 -1.8161752e-03 
9.2513993e-02 8.2998745e-02 -1.2888748e-03 
9.3252234e-02 8.3699264e-02 -9.5086428e-04 
9.3085915e-02 8.3628476e-02 -1.6654865e-03 
9.2419297e-02 8.2743689e-02 -1.2729704e-04 
9.2243738e-02 8.2781263e-02 -1.7022633e-03 
9.2061251e-02 8.2459316e-02 -6.9340190e-04 
9.2519090e-02 8.2904540e-02 -5.6439207e-04 
9.2357598e-02 8.2899503e-02 -1.7280633e-03 
9.3062036e-02 8.3674207e-02 -2.1680007e-03 
9.1813661e-02 8.2142875e-02 -2.1234628e-04 
9.1720700e-02 8.2196973e-02 -1.2945153e-03 
9.2018366e-02 8.2354106e-02 -2.4403725e-04 
9.1833554e-02 8.2382187e-02 -1.8219929e-03 
9.1345668e-02 8.1734940e-02 -6.8909250e-04 
9.2333011e-02 8.2886241e-02 -1.8088415e-03 
9.2358544e-02 8.2867913e-02 -1.4841089e-03 
9.1507114e-02 8.1819698e-02 -1.1726034e-04 
9.1327079e-02 8.1854813e-02 -1.7071223e-03 
9.1605365e-02 8.1977412e-02 -5.4225582e-04 
9.0952888e-02 8.1418030e-02 -1.2765937e-03 
9.1336183e-02 8.1869841e-02 -1.7562334e-03 
9.1592789e-02 8.2016557e-02 -9.2317502e-04 
9.0905599e-02 8.1224009e-02 -2.0562332e-04 
9.1111384e-02 8.1435800e-02 -2.3083221e-04 
9.0923011e-02 8.1461392e-02 -1.8265600e-03 
9.0634145e-02 8.1015743e-02 -6.8488967e-04 
9.1846898e-02 8.2443528e-02 -2.1711749e-03 
9.0493135e-02 8.0900460e-02 -8.8928145e-04 
9.0607472e-02 8.0910318e-02 -1.0788623e-04 
9.1034435e-02 8.1552759e-02 -1.6678971e-03 
9.0311497e-02 8.0755070e-02 -1.1657259e-03 
9.0424605e-02 8.0942370e-02 -1.7111528e-03 
9.0354435e-02 8.0676600e-02 -2.7070320e-04 
9.0704486e-02 8.1064396e-02 -5.2061788e-04 
9.1120429e-02 8.1659555e-02 -1.8122226e-03 
9.1145486e-02 8.1641063e-02 -1.4880215e-03 
9.0533487e-02 8.1056029e-02 -1.7432403e-03 
9.0087689e-02 8.0392957e-02 -1.6311507e-04 
8.9927457e-02 8.0301777e-02 -6.8088702e-04 
9.0217166e-02 8.0531463e-02 -2.1729451e-04 
9.0026192e-02 8.0555439e-02 -1.8306741e-03 
8.9754969e-02 8.0072463e-02 -2.7564267e-04 
8.9597531e-02 8.0038480e-02 -1.1990515e-03 
8.9720413e-02 8.0013454e-02 -9.8567878e-05 
8.9535698e-02 8.0045320e-02 -1.7144560e-03 
9.0633854e-02 8.1216767e-02 -2.1738494e-03 
8.9815862e-02 8.0164671e-02 -4.9963180e-04 
8.9225218e-02 7.9592615e-02 -6.7665265e-04 
8.9543283e-02 8.0059297e-02 -1.7687485e-03 
8.9174487e-02 7.9474397e-02 -1.8349967e-04 
8.9804105e-02 8.0213271e-02 -9.5183082e-04 
8.9335069e-02 7.9639956e-02 -2.0471911e-04 
8.9187525e-02 7.9561502e-02 -7.3158054e-04 
8.8946596e-02 7.9394266e-02 -1.2934544e-03 
8.9909941e-02 8.0436654e-02 -1.8152596e-03 
8.9143001e-02 7.9663858e-02 -1.8342424e-03 
8.9934468e-02 8.0418065e-02 -1.4917885e-03 
8.8845208e-02 7.9130448e-02 -8.9985326e-05 
8.9251950e-02 7.9750896e-02 -1.6624178e-03 