# vtk DataFile Version 4.0
vtk output
ASCII
DATASET UNSTRUCTURED_GRID
POINTS 4496 float
-4.3633327e-01 9.6409470e-01 4.4200001e+01 
-4.3633258e-01 9.6409065e-01 4.4074627e+01 
-3.2152572e-01 9.1279918e-01 4.4200001e+01 
-3.8534868e-01 8.4052670e-01 4.4200001e+01 
-3.9589554e-01 8.5545403e-01 4.4010014e+01 
-3.2616228e-01 9.1667932e-01 4.4011734e+01 
-4.3633190e-01 9.6408653e-01 4.3948376e+01 
-2.1293370e-01 8.4677851e-01 4.4200001e+01 
-2.9042658e-01 7.3813015e-01 4.4200001e+01 
-2.1010752e-01 8.4669363e-01 4.4073502e+01 
-2.8908840e-01 7.3604190e-01 4.4072292e+01 
-3.9589015e-01 8.5505831e-01 4.3883316e+01 
-3.2487559e-01 9.1697580e-01 4.3885036e+01 
-2.0722924e-01 8.4660655e-01 4.3944645e+01 
-1.1981077e-01 7.7773046e-01 4.4200001e+01 
-2.8772619e-01 7.3391593e-01 4.3942276e+01 
-4.3633121e-01 9.6408242e-01 4.3821228e+01 
-1.9739023e-01 6.6468561e-01 4.4200001e+01 
-2.9444304e-01 7.8727525e-01 4.3879974e+01 
-8.7554991e-02 7.5255024e-01 4.4042213e+01 
-1.6445170e-01 6.4084798e-01 4.4041008e+01 
-3.2357255e-01 9.1726828e-01 4.3757431e+01 
-3.9587301e-01 8.5463828e-01 4.3755711e+01 
-2.0429766e-01 8.4651643e-01 4.3813354e+01 
-2.8633916e-01 7.3175091e-01 4.3809875e+01 
-2.6899619e-02 6.8901783e-01 4.4200001e+01 
-1.0567340e-01 7.7152997e-01 4.3875790e+01 
-4.3633053e-01 9.6407831e-01 4.3693161e+01 
-8.7133333e-02 5.9509218e-01 4.4200001e+01 
-1.8777622e-01 6.5475601e-01 4.3873402e+01 
-2.0131156e-01 8.4642249e-01 4.3679543e+01 
-3.2225290e-01 9.1755641e-01 4.3628902e+01 
-3.9584404e-01 8.5419410e-01 4.3627178e+01 
-1.0114321e-03 6.6670936e-01 4.3939713e+01 
-2.8492665e-01 7.2954547e-01 4.3675007e+01 
-1.0131179e-01 7.7015632e-01 4.3743176e+01 
-6.0682178e-02 5.7631296e-01 4.3938457e+01 
3.9444737e-02 6.2338209e-01 4.4053139e+01 
-1.8470748e-01 6.5131217e-01 4.3739727e+01 
-7.0938184e-03 5.4737431e-01 4.4052326e+01 
-4.3632981e-01 9.6407413e-01 4.3564159e+01 
7.6947339e-02 5.8804804e-01 4.4200001e+01 
-1.2721874e-02 6.8194175e-01 4.3817982e+01 
-7.7214435e-02 5.8474159e-01 4.3819649e+01 
4.0195532e-02 5.2425718e-01 4.4200001e+01 
-1.9826968e-01 8.4632379e-01 4.3543118e+01 
-9.6842363e-02 7.6872379e-01 4.3607994e+01 
-3.2091641e-01 9.1783977e-01 4.3499420e+01 
-3.9580306e-01 8.5372573e-01 4.3497700e+01 
-2.8348783e-01 7.2729832e-01 4.3537586e+01 
-1.8155001e-01 6.4778340e-01 4.3603539e+01 
1.5678726e-01 5.2239102e-01 4.4060219e+01 
1.0298219e-02 6.6009766e-01 4.3674484e+01 
1.3250886e-01 4.7546524e-01 4.4058990e+01 
-4.3632913e-01 9.6407002e-01 4.3434200e+01 
-5.0139543e-02 5.6696451e-01 4.3671154e+01 
1.3504514e-01 5.4209155e-01 4.3856747e+01 
1.0361936e-01 4.8715758e-01 4.3855240e+01 
2.0846681e-01 4.8028421e-01 4.4200001e+01 
1.9279444e-01 4.4799727e-01 4.4200001e+01 
-9.2261828e-02 7.6722860e-01 4.3470158e+01 
-1.4701239e-03 6.7547697e-01 4.3552124e+01 
-1.9517080e-01 8.4621930e-01 4.3403992e+01 
-3.1956279e-01 9.1811794e-01 4.3368977e+01 
-3.9574999e-01 8.5323322e-01 4.3367252e+01 
-1.7830023e-01 6.4416617e-01 4.3464752e+01 
-6.7131944e-02 5.7555372e-01 4.3547829e+01 
-2.8202194e-01 7.2500783e-01 4.3397518e+01 
-4.3632844e-01 9.6406585e-01 4.3303261e+01 
1.5138821e-01 5.3037512e-01 4.3609200e+01 
1.2119007e-01 4.7490793e-01 4.3606068e+01 
-8.7566733e-02 7.6566672e-01 4.3329563e+01 
-1.7495437e-01 6.4045686e-01 4.3323273e+01 
-3.1819177e-01 9.1839045e-01 4.3237537e+01 
-3.9568463e-01 8.5271639e-01 4.3235813e+01 
2.2269404e-02 6.5294570e-01 4.3398811e+01 
-1.9201367e-01 8.4610778e-01 4.3262066e+01 
-3.8899176e-02 5.5709696e-01 4.3393635e+01 
-2.8052819e-01 7.2267252e-01 4.3254715e+01 
3.7877345e-01 3.8273901e-01 4.4200001e+01 
-4.3632776e-01 9.6406174e-01 4.3171322e+01 
3.9241230e-01 3.7329337e-01 4.3965439e+01 
1.0283732e-02 6.6872352e-01 4.3271511e+01 
-5.6385640e-02 5.6585240e-01 4.3265472e+01 
-8.2753494e-02 7.6403379e-01 4.3186119e+01 
-4.0345609e-01 8.6371827e-01 4.3104889e+01 
-3.1680310e-01 9.1865683e-01 4.3105087e+01 
-1.7150842e-01 6.3665158e-01 4.3179005e+01 
-1.8879703e-01 8.4598809e-01 4.3117241e+01 
-2.7900568e-01 7.2029078e-01 4.3109074e+01 
4.0610775e-01 3.6380205e-01 4.3729839e+01 
1.6776134e-01 5.1882964e-01 4.3331150e+01 
-4.3632707e-01 9.6405768e-01 4.3038357e+01 
1.4031014e-01 4.6124566e-01 4.3307755e+01 
3.4952711e-02 6.4519531e-01 4.3111935e+01 
-7.7818394e-02 7.6232505e-01 4.3039719e+01 
-3.1539652e-01 9.1891652e-01 4.2971603e+01 
-3.9551663e-01 8.5160977e-01 4.2969879e+01 
-2.6899155e-02 5.4666573e-01 4.3105160e+01 
-1.6795819e-01 6.3274628e-01 4.3031849e+01 
-1.8551964e-01 8.4585863e-01 4.2969406e+01 
4.1985780e-01 3.5425979e-01 4.3493168e+01 
-2.7745360e-01 7.1786088e-01 4.2960495e+01 
-4.3632638e-01 9.6405357e-01 4.2904346e+01 
2.2723136e-02 6.6139150e-01 4.2979332e+01 
-4.4916678e-02 5.5559248e-01 4.2971806e+01 
-3.1397179e-01 9.1916907e-01 4.2837063e+01 
-3.9541367e-01 8.5101974e-01 4.2835335e+01 
-7.2757579e-02 7.6053542e-01 4.2890255e+01 
-1.6429928e-01 6.2873662e-01 4.2881699e+01 
1.8463810e-01 5.0694346e-01 4.3035332e+01 
-1.8218029e-01 8.4571803e-01 4.2818455e+01 
1.5503895e-01 4.5003417e-01 4.3027725e+01 
-2.7587104e-01 7.1538109e-01 4.2808868e+01 
4.3366045e-01 3.4466109e-01 4.3255390e+01 
-4.3632573e-01 9.6404958e-01 4.2769268e+01 
-3.8429454e-01 8.3484912e-01 4.2710606e+01 
-3.1252861e-01 9.1941386e-01 4.2701439e+01 
4.8404284e-02 6.3678014e-01 4.2813030e+01 
-1.4070326e-02 5.3562075e-01 4.2804932e+01 
-6.7567028e-02 7.5865942e-01 4.2737610e+01 
-1.6052702e-01 6.2461799e-01 4.2728443e+01 
-1.7877772e-01 8.4556442e-01 4.2664265e+01 
-4.3632504e-01 9.6404558e-01 4.2633099e+01 
-2.7425703e-01 7.1284944e-01 4.2654083e+01 
4.4751364e-01 3.3500037e-01 4.3016472e+01 
3.5901129e-02 6.5341437e-01 4.2674721e+01 
-3.7959340e-01 8.2794034e-01 4.2568317e+01 
-3.1106678e-01 9.1965032e-01 4.2564713e+01 
-3.2659348e-02 5.4472327e-01 4.2665997e+01 
2.0396979e-01 4.9291667e-01 4.2740131e+01 
-6.2242586e-02 7.5669110e-01 4.2581669e+01 
1.7765003e-01 4.3475360e-01 4.2732578e+01 
-1.5663649e-01 6.2038553e-01 4.2571964e+01 
-4.3632439e-01 9.6404165e-01 4.2495808e+01 
-1.7531081e-01 8.4539592e-01 4.2506718e+01 
-2.7261066e-01 7.1026409e-01 4.2496017e+01 
-3.0958602e-01 9.1987789e-01 4.2426853e+01 
-3.7859210e-01 8.2613736e-01 4.2421188e+01 
4.6141517e-01 3.2527190e-01 4.2776375e+01 
6.2686495e-02 6.2762415e-01 4.2501175e+01 
-3.3570320e-04 5.2390522e-01 4.2492062e+01 
-5.6779940e-02 7.5462401e-01 4.2422298e+01 
-4.3632373e-01 9.6403772e-01 4.2357380e+01 
-1.5262254e-01 6.1603409e-01 4.2412144e+01 
-1.7177837e-01 8.4521037e-01 4.2345684e+01 
-2.7093092e-01 7.0762289e-01 4.2334549e+01 
-3.0808610e-01 9.2009580e-01 4.2287842e+01 
-3.8275370e-01 8.3137155e-01 4.2275047e+01 
4.9876589e-02 6.4471585e-01 4.2356720e+01 
-1.9539909e-02 5.3318781e-01 4.2347118e+01 
-4.3632311e-01 9.6403396e-01 4.2217781e+01 
2.1959943e-01 4.8236796e-01 4.2385345e+01 
-5.1174615e-02 7.5245124e-01 4.2259373e+01 
1.9034323e-01 4.2346162e-01 4.2378918e+01 
-1.4847966e-01 6.1155808e-01 4.2248856e+01 
4.7536272e-01 3.1546980e-01 4.2535065e+01 
-1.6817927e-01 8.4500539e-01 4.2181026e+01 
-2.6921678e-01 7.0492369e-01 4.2169544e+01 
-3.0656675e-01 9.2030340e-01 4.2147648e+01 
-3.9470181e-01 8.4769493e-01 4.2145920e+01 
7.7868804e-02 6.1763972e-01 4.2175373e+01 
-4.3632248e-01 9.6403021e-01 4.2076988e+01 
1.4390758e-02 5.1145434e-01 4.2165581e+01 
-4.5421973e-02 7.5016522e-01 4.2092751e+01 
-1.4420210e-01 6.0695171e-01 4.2081959e+01 
-3.0502778e-01 9.2049998e-01 4.2006248e+01 
-4.0175444e-01 8.5747409e-01 4.2004128e+01 
-1.6451253e-01 8.4477836e-01 4.2012604e+01 
4.8935395e-01 3.0558801e-01 4.2292507e+01 
-2.6746723e-01 7.0216429e-01 4.2000870e+01 
6.4714879e-02 6.3520777e-01 4.2024277e+01 
-4.3632188e-01 9.6402657e-01 4.1934975e+01 
-5.4755262e-03 5.2092212e-01 4.2014156e+01 
-2.3078828e-01 8.1064087e-01 4.1931458e+01 
2.3550548e-01 4.7116494e-01 4.2073269e+01 
2.0610523e-01 4.1123796e-01 4.2066772e+01 
-3.9517213e-02 7.4775779e-01 4.1922287e+01 
-1.3978374e-01 6.0220873e-01 4.1911320e+01 
-3.0346894e-01 9.2068475e-01 4.1863613e+01 
-3.9432141e-01 8.4618556e-01 4.1861881e+01 
-1.6077711e-01 8.4452641e-01 4.1840263e+01 
-2.6568118e-01 6.9934219e-01 4.1828377e+01 
-4.3632129e-01 9.6402299e-01 4.1791718e+01 
5.0338638e-01 2.9562023e-01 4.2048656e+01 
9.4028555e-02 6.0672593e-01 4.1834507e+01 
3.0205652e-02 4.9819478e-01 4.1824417e+01 
-3.8116732e-01 8.2744831e-01 4.1725647e+01 
-3.0189002e-01 9.2085695e-01 4.1719719e+01 
-3.3455357e-02 7.4522001e-01 4.1747829e+01 
-1.3521814e-01 5.9732240e-01 4.1736786e+01 
-4.3632072e-01 9.6401960e-01 4.1647179e+01 
-1.5697217e-01 8.4424627e-01 4.1663853e+01 
-2.6385748e-01 6.9645494e-01 4.1651920e+01 
8.0488607e-02 6.2478805e-01 4.1676235e+01 
2.6870471e-01 4.4547972e-01 4.1752304e+01 
9.6269641e-03 5.0785345e-01 4.1665993e+01 
2.4764967e-01 3.8646612e-01 4.1743168e+01 
-3.0029076e-01 9.2101562e-01 4.1574532e+01 
-3.9388368e-01 8.4456980e-01 4.1572796e+01 
5.1745731e-01 2.8556010e-01 4.1803486e+01 
-2.7231261e-02 7.4254233e-01 4.1569210e+01 
-1.3049847e-01 5.9228569e-01 4.1558201e+01 
-4.3632016e-01 9.6401632e-01 4.1501339e+01 
-1.5309690e-01 8.4393430e-01 4.1483204e+01 
-2.6199502e-01 6.9349992e-01 4.1471333e+01 
-2.9867104e-01 9.2115986e-01 4.1428024e+01 
-3.9364263e-01 8.4372103e-01 4.1426289e+01 
1.1125199e-01 5.9476525e-01 4.1477348e+01 
4.7217656e-02 4.8404291e-01 4.1467384e+01 
-4.3631962e-01 9.6401310e-01 4.1354160e+01 
-2.0839609e-02 7.3971421e-01 4.1386261e+01 
-1.2561750e-01 5.8709091e-01 4.1375404e+01 
5.3156406e-01 2.7540097e-01 4.1556946e+01 
-1.4915068e-01 8.4358656e-01 4.1298138e+01 
-2.9703063e-01 9.2128879e-01 4.1280167e+01 
-3.9338648e-01 8.4284443e-01 4.1278431e+01 
-2.6009262e-01 6.9047421e-01 4.1286449e+01 
2.9365057e-01 4.2687622e-01 4.1391586e+01 
9.7278498e-02 6.1333776e-01 4.1311302e+01 
2.7470219e-01 3.6807936e-01 4.1382729e+01 
2.5872495e-02 4.9389899e-01 4.1301384e+01 
-4.3631911e-01 9.6401012e-01 4.1205620e+01 
-1.4274905e-02 7.3672432e-01 4.1198803e+01 
-1.2056758e-01 5.8173001e-01 4.1188221e+01 
-2.9536936e-01 9.2140132e-01 4.1130928e+01 
[...]
POINT_DATA 4496
FIELD FieldData 5
DISPLACEMENT 3 4496  float
1.3260205e-01 1.2239673e-01 -9.5875311e-04 
1.3191889e-01 1.2169804e-01 -9.5492386e-04 
1.3264063e-01 1.2248430e-01 -1.2991937e-03 
1.3269842e-01 1.2243721e-01 -5.4868282e-04 
1.3165160e-01 1.2137025e-01 -5.6852523e-04 
1.3161178e-01 1.2143154e-01 -1.2897918e-03 
1.3123098e-01 1.2099451e-01 -9.5106463e-04 
1.3269089e-01 1.2256744e-01 -1.5237541e-03 
1.3277748e-01 1.2251057e-01 -4.9611094e-04 
1.3200161e-01 1.2186459e-01 -1.5348486e-03 
1.3208319e-01 1.2179991e-01 -4.8789798e-04 
1.3096155e-01 1.2066423e-01 -5.6249980e-04 
1.3092119e-01 1.2072647e-01 -1.2946075e-03 
1.3129950e-01 1.2114865e-01 -1.5461347e-03 
1.3274378e-01 1.2263894e-01 -1.6471052e-03 
1.3137637e-01 1.2107642e-01 -4.7955147e-04 
1.3053821e-01 1.2028601e-01 -9.4717171e-04 
1.3283384e-01 1.2258209e-01 -5.9448497e-04 
1.3099506e-01 1.2072331e-01 -7.3817116e-04 
1.3190328e-01 1.2178435e-01 -1.6779995e-03 
1.3198566e-01 1.2172126e-01 -6.3653837e-04 
1.3022570e-01 1.2001640e-01 -1.2994183e-03 
1.3026661e-01 1.1995322e-01 -5.5639597e-04 
1.3058414e-01 1.2041918e-01 -1.5576133e-03 
1.3065657e-01 1.2033968e-01 -4.7105114e-04 
1.3281214e-01 1.2271062e-01 -1.6597938e-03 
1.3098177e-01 1.2084282e-01 -1.6798058e-03 
1.2984055e-01 1.1957246e-01 -9.4323134e-04 
1.3288693e-01 1.2266658e-01 -8.0819940e-04 
1.3106173e-01 1.2076934e-01 -5.8171188e-04 
1.2985511e-01 1.1967576e-01 -1.5692726e-03 
1.2952524e-01 1.1930122e-01 -1.3042766e-03 
1.2956668e-01 1.1923715e-01 -5.5021764e-04 
1.3141087e-01 1.2127981e-01 -1.6688419e-03 
1.2992339e-01 1.1958926e-01 -4.6241152e-04 
1.3026018e-01 1.2010705e-01 -1.6918881e-03 
1.3147599e-01 1.2122916e-01 -8.3992165e-04 
1.3206244e-01 1.2194330e-01 -1.6516395e-03 
1.3033593e-01 1.2002675e-01 -5.7523587e-04 
1.3211849e-01 1.2190480e-01 -9.7445812e-04 
1.2913781e-01 1.1885384e-01 -9.3927002e-04 
1.3289002e-01 1.2279084e-01 -1.6638484e-03 
1.3073571e-01 1.2059222e-01 -1.6861018e-03 
1.3082212e-01 1.2055437e-01 -7.9310325e-04 
1.3294078e-01 1.2276405e-01 -1.1080982e-03 
1.2911190e-01 1.1891786e-01 -1.5811098e-03 
1.2952469e-01 1.1935708e-01 -1.7041361e-03 
1.2881969e-01 1.1858089e-01 -1.3091390e-03 
1.2886168e-01 1.1851589e-01 -5.4390042e-04 
1.2917638e-01 1.1882471e-01 -4.5361524e-04 
1.2959653e-01 1.1927028e-01 -5.6869671e-04 
1.3217869e-01 1.2207315e-01 -1.7293830e-03 
1.2997055e-01 1.1981013e-01 -1.6856365e-03 
1.3220927e-01 1.2204868e-01 -1.3355287e-03 
1.2842996e-01 1.1812992e-01 -9.3524274e-04 
1.3002640e-01 1.1974746e-01 -8.3726994e-04 
1.3105460e-01 1.2092214e-01 -1.7143534e-03 
1.3109002e-01 1.2089087e-01 -1.2368901e-03 
1.3297290e-01 1.2289216e-01 -1.7809729e-03 
1.3299854e-01 1.2288082e-01 -1.5156171e-03 
1.2877482e-01 1.1859243e-01 -1.7165586e-03 
1.2929195e-01 1.1911907e-01 -1.7033454e-03 
1.2835406e-01 1.1814506e-01 -1.5931324e-03 
1.2810893e-01 1.1785525e-01 -1.3140427e-03 
1.2815151e-01 1.1778937e-01 -5.3752691e-04 
1.2884307e-01 1.1849948e-01 -5.6213769e-04 
1.2934783e-01 1.1904724e-01 -7.8875123e-04 
1.2841502e-01 1.1804555e-01 -4.4467923e-04 
1.2771687e-01 1.1740074e-01 -9.3120075e-04 
1.2971438e-01 1.1955464e-01 -1.7307148e-03 
1.2974127e-01 1.1951533e-01 -1.2569331e-03 
1.2801008e-01 1.1781263e-01 -1.7291026e-03 
1.2807505e-01 1.1771384e-01 -5.5550027e-04 
1.2739292e-01 1.1712430e-01 -1.3189325e-03 
1.2743606e-01 1.1705750e-01 -5.3105998e-04 
1.2847386e-01 1.1828286e-01 -1.7026599e-03 
1.2758109e-01 1.1735681e-01 -1.6053069e-03 
1.2852159e-01 1.1820950e-01 -8.3527988e-04 
1.2763888e-01 1.1725129e-01 -4.3558556e-04 
1.3304713e-01 1.2302266e-01 -2.1665301e-03 
1.2699842e-01 1.1666610e-01 -9.2714024e-04 
1.3177583e-01 1.2172530e-01 -2.1811703e-03 
1.2776819e-01 1.1756426e-01 -1.7212195e-03 
1.2781665e-01 1.1748214e-01 -7.8489521e-04 
1.2722997e-01 1.1701714e-01 -1.7417979e-03 
1.2671457e-01 1.1632252e-01 -5.4601900e-04 
1.2667143e-01 1.1638777e-01 -1.3238926e-03 
1.2729204e-01 1.1691291e-01 -5.4884865e-04 
1.2679245e-01 1.1655266e-01 -1.6176355e-03 
1.2684749e-01 1.1644150e-01 -4.2628174e-04 
1.3049878e-01 1.2042206e-01 -2.1958228e-03 
1.2820788e-01 1.1801726e-01 -1.7472669e-03 
1.2627451e-01 1.1592598e-01 -9.2305045e-04 
1.2812579e-01 1.1786716e-01 -1.2761395e-03 
1.2691689e-01 1.1669404e-01 -1.7198485e-03 
1.2643395e-01 1.1620545e-01 -1.7545986e-03 
1.2594458e-01 1.1564577e-01 -1.3287849e-03 
1.2598884e-01 1.1557718e-01 -5.1784591e-04 
1.2695774e-01 1.1661147e-01 -8.3403400e-04 
1.2649341e-01 1.1609612e-01 -5.4210995e-04 
1.2598760e-01 1.1573195e-01 -1.6301033e-03 
1.2921587e-01 1.1911261e-01 -2.2104443e-03 
1.2604019e-01 1.1561552e-01 -4.1687390e-04 
1.2554519e-01 1.1518019e-01 -9.1884879e-04 
1.2618224e-01 1.1594599e-01 -1.7391911e-03 
1.2622459e-01 1.1585514e-01 -7.8163802e-04 
1.2521209e-01 1.1489807e-01 -1.3337556e-03 
1.2525699e-01 1.1482866e-01 -5.1115366e-04 
1.2562147e-01 1.1537698e-01 -1.7675200e-03 
1.2567876e-01 1.1526301e-01 -5.3539471e-04 
1.2660502e-01 1.1638147e-01 -1.7641140e-03 
1.2516597e-01 1.1489414e-01 -1.6426952e-03 
1.2660833e-01 1.1631786e-01 -1.2856427e-03 
1.2521660e-01 1.1477301e-01 -4.0731599e-04 
1.2792702e-01 1.1779720e-01 -2.2251147e-03 
1.2481012e-01 1.1442888e-01 -9.1464852e-04 
1.2459057e-01 1.1414348e-01 -4.7807218e-04 
1.2447397e-01 1.1414477e-01 -1.3386299e-03 
1.2529536e-01 1.1503945e-01 -1.7371027e-03 
1.2533073e-01 1.1494932e-01 -8.3368446e-04 
1.2479189e-01 1.1453121e-01 -1.7805360e-03 
1.2484739e-01 1.1441298e-01 -5.2856497e-04 
1.2432707e-01 1.1403888e-01 -1.6554134e-03 
1.2406941e-01 1.1367174e-01 -9.1036106e-04 
1.2437600e-01 1.1391310e-01 -3.9753446e-04 
1.2663205e-01 1.1647552e-01 -2.2396042e-03 
1.2452970e-01 1.1425994e-01 -1.7571587e-03 
1.2382175e-01 1.1335596e-01 -4.6097746e-04 
1.2373010e-01 1.1338558e-01 -1.3434379e-03 
1.2456737e-01 1.1416209e-01 -7.7908055e-04 
1.2500755e-01 1.1475164e-01 -1.7824583e-03 
1.2394479e-01 1.1366750e-01 -1.7936848e-03 
1.2501186e-01 1.1469091e-01 -1.3151243e-03 
1.2399887e-01 1.1354549e-01 -5.2187766e-04 
1.2332291e-01 1.1290870e-01 -9.0592791e-04 
1.2347010e-01 1.1316527e-01 -1.6683207e-03 
1.2351786e-01 1.1303557e-01 -3.8763756e-04 
1.2298023e-01 1.1262049e-01 -1.3483402e-03 
1.2302294e-01 1.1253921e-01 -4.5210743e-04 
1.2533118e-01 1.1514805e-01 -2.2539415e-03 
1.2360469e-01 1.1331453e-01 -1.7542678e-03 
1.2363611e-01 1.1321869e-01 -8.3428074e-04 
1.2307937e-01 1.1278529e-01 -1.8067531e-03 
1.2257040e-01 1.1213984e-01 -9.0154656e-04 
1.2313242e-01 1.1265993e-01 -5.1503262e-04 
1.2259457e-01 1.1227284e-01 -1.6812428e-03 
1.2264158e-01 1.1213966e-01 -3.7755471e-04 
1.2222449e-01 1.1184948e-01 -1.3531691e-03 
1.2222450e-01 1.1172456e-01 -4.5426871e-04 
1.2280579e-01 1.1250128e-01 -1.7749087e-03 
1.2284052e-01 1.1239847e-01 -7.7727647e-04 
1.2181193e-01 1.1136506e-01 -8.9710375e-04 
1.2308385e-01 1.1278851e-01 -1.7982031e-03 
1.2219507e-01 1.1188395e-01 -1.8198529e-03 
1.2309463e-01 1.1273207e-01 -1.3112102e-03 
1.2224756e-01 1.1175581e-01 -5.0820358e-04 
1.2402386e-01 1.1381400e-01 -2.2680352e-03 
1.2169976e-01 1.1136090e-01 -1.6942513e-03 
1.2174645e-01 1.1122474e-01 -3.6730451e-04 
1.2146276e-01 1.1107254e-01 -1.3579207e-03 
1.2151052e-01 1.1099900e-01 -4.7603910e-04 
1.2184001e-01 1.1151455e-01 -1.7712581e-03 
1.2104734e-01 1.1058408e-01 -8.9266605e-04 
1.2186915e-01 1.1141498e-01 -8.3611609e-04 
1.2129118e-01 1.1096282e-01 -1.8329780e-03 
1.2134372e-01 1.1083239e-01 -5.0125358e-04 
1.2069459e-01 1.1028912e-01 -1.3628757e-03 
1.2073287e-01 1.1020719e-01 -4.8781064e-04 
1.2078495e-01 1.1042879e-01 -1.7073054e-03 
1.2271032e-01 1.1247374e-01 -2.2819515e-03 
1.2083204e-01 1.1029033e-01 -3.5675504e-04 
1.2100552e-01 1.1066538e-01 -1.7923443e-03 
1.2027623e-01 1.0979676e-01 -8.8825799e-04 
1.2103900e-01 1.1055960e-01 -7.7646784e-04 
1.2037152e-01 1.0993067e-01 -1.1551740e-03 
1.2139452e-01 1.1106535e-01 -1.8131016e-03 
1.2140545e-01 1.1100864e-01 -1.3202392e-03 
1.2036703e-01 1.1002129e-01 -1.8461259e-03 
1.2042004e-01 1.0988911e-01 -4.9427064e-04 
1.1992008e-01 1.0949942e-01 -1.3677124e-03 
1.1996894e-01 1.0942425e-01 -4.6151745e-04 
1.1984944e-01 1.0947592e-01 -1.7205059e-03 
1.1989744e-01 1.0933532e-01 -3.4598171e-04 
1.1949878e-01 1.0900297e-01 -8.8364654e-04 
1.2139075e-01 1.1112781e-01 -2.2956778e-03 
1.1999582e-01 1.0963424e-01 -1.7879251e-03 
1.2002458e-01 1.0953320e-01 -8.3918823e-04 
1.1924379e-01 1.0867949e-01 -4.2504424e-04 
1.1913928e-01 1.0870343e-01 -1.3723548e-03 
1.1942168e-01 1.0905828e-01 -1.8592621e-03 
1.1947571e-01 1.0892495e-01 -4.8719897e-04 
1.1871493e-01 1.0820270e-01 -8.7885140e-04 
1.1889245e-01 1.0850119e-01 -1.7337101e-03 
1.1894173e-01 1.0835926e-01 -3.3518198e-04 
1.1912300e-01 1.0874646e-01 -1.8092809e-03 
1.1966912e-01 1.0930806e-01 -1.8414694e-03 
1.1915708e-01 1.0863991e-01 -7.7667460e-04 
1.1966461e-01 1.0924294e-01 -1.3996809e-03 
1.1835175e-01 1.0790087e-01 -1.3770704e-03 
1.1840194e-01 1.0782408e-01 -4.4636193e-04 
1.2006535e-01 1.0977670e-01 -2.3090800e-03 
1.1845452e-01 1.0807323e-01 -1.8722968e-03 
1.1851022e-01 1.0793950e-01 -4.8036093e-04 
1.1792450e-01 1.0739622e-01 -8.7409012e-04 
1.1791309e-01 1.0750408e-01 -1.7467762e-03 
1.1796437e-01 1.0736153e-01 -3.2425203e-04 
1.1755778e-01 1.0709184e-01 -1.3816126e-03 
1.1760850e-01 1.0701449e-01 -4.3882761e-04 
1.1806603e-01 1.0766755e-01 -1.8039261e-03 
1.1809663e-01 1.0756770e-01 -8.4355549e-04 
1.1712728e-01 1.0658331e-01 -8.6943136e-04 
1.1746465e-01 1.0706551e-01 -1.8851088e-03 
1.1752259e-01 1.0693190e-01 -4.7324676e-04 
1.1873311e-01 1.0841865e-01 -2.3218959e-03 
1.1691066e-01 1.0648386e-01 -1.7598148e-03 
1.1675696e-01 1.0627639e-01 -1.3862092e-03 
1.1680808e-01 1.0619808e-01 -4.3099507e-04 
1.1696455e-01 1.0634115e-01 -3.1272700e-04 
1.1772455e-01 1.0732730e-01 -1.8630879e-03 
1.1715201e-01 1.0673829e-01 -1.8254619e-03 
1.1772108e-01 1.0726554e-01 -1.4347488e-03 
1.1718928e-01 1.0663392e-01 -7.7793619e-04 
1.1632329e-01 1.0576324e-01 -8.6461275e-04 
1.1645140e-01 1.0603409e-01 -1.8979689e-03 
1.1651187e-01 1.0590128e-01 -4.6613230e-04 
1.1594912e-01 1.0545360e-01 -1.3908331e-03 
1.1600108e-01 1.0537474e-01 -4.2323902e-04 
1.1588419e-01 1.0543933e-01 -1.7729327e-03 
1.1594133e-01 1.0529743e-01 -3.0127136e-04 
1.1739462e-01 1.0705493e-01 -2.3344471e-03 
1.1551216e-01 1.0493649e-01 -8.5983711e-04 
1.1604420e-01 1.0560822e-01 -1.8192582e-03 
1.1607870e-01 1.0551200e-01 -8.4954582e-04 
1.1513429e-01 1.0462425e-01 -1.3954107e-03 
1.1518668e-01 1.0454447e-01 -4.1528276e-04 
1.1541339e-01 1.0497794e-01 -1.9104205e-03 
1.1547760e-01 1.0484692e-01 -4.5915329e-04 
1.1469406e-01 1.0410263e-01 -8.5479399e-04 
1.1483285e-01 1.0436988e-01 -1.7857422e-03 
1.1489367e-01 1.0422942e-01 -2.8940529e-04 
1.1568663e-01 1.0525285e-01 -1.8859878e-03 
1.1568666e-01 1.0519712e-01 -1.4734888e-03 
1.1499634e-01 1.0454144e-01 -1.8261413e-03 
1.1604999e-01 1.0568568e-01 -2.3466197e-03 
1.1431240e-01 1.0378768e-01 -1.3995859e-03 
1.1436545e-01 1.0370753e-01 -4.0751614e-04 
1.1503380e-01 1.0444859e-01 -8.5306499e-04 
1.1435033e-01 1.0389654e-01 -1.9227116e-03 
1.1441837e-01 1.0376784e-01 -4.5205490e-04 
1.1386871e-01 1.0326222e-01 -8.4990327e-04 
1.1375531e-01 1.0327445e-01 -1.7985574e-03 
1.1382125e-01 1.0313639e-01 -2.7739370e-04 
1.1348332e-01 1.0294473e-01 -1.4037767e-03 
1.1353669e-01 1.0286350e-01 -3.9938776e-04 
1.1392289e-01 1.0344898e-01 -1.8330063e-03 
1.1347552e-01 1.0284961e-01 -7.6005113e-04 
1.1396406e-01 1.0336024e-01 -8.5727870e-04 
1.1303616e-01 1.0241449e-01 -8.4468449e-04 
1.1469800e-01 1.0430881e-01 -2.3580687e-03 
1.1400682e-01 1.0354141e-01 -1.8860798e-03 
1.1326073e-01 1.0278884e-01 -1.9342093e-03 
1.1402548e-01 1.0349764e-01 -1.4168515e-03 
1.1333379e-01 1.0266364e-01 -4.4493779e-04 
1.1264671e-01 1.0209396e-01 -1.4076654e-03 
1.1270071e-01 1.0201242e-01 -3.9121334e-04 
1.1265160e-01 1.0215273e-01 -1.8105189e-03 
1.1272238e-01 1.0201765e-01 -2.6566841e-04 
1.1219618e-01 1.0155991e-01 -8.3974120e-04 
1.1282278e-01 1.0232999e-01 -1.8396145e-03 
1.1286820e-01 1.0224614e-01 -8.6177187e-04 
1.1214405e-01 1.0165407e-01 -1.9457996e-03 
1.1180292e-01 1.0123627e-01 -1.4117436e-03 
1.1185740e-01 1.0115409e-01 -3.8291098e-04 
1.1222246e-01 1.0153300e-01 -4.3763424e-04 
1.1333933e-01 1.0292691e-01 -2.3694357e-03 
1.1151956e-01 1.0100301e-01 -1.8230436e-03 
1.1134863e-01 1.0069774e-01 -8.3454920e-04 
1.1254814e-01 1.0201976e-01 -1.6061794e-03 
1.1251672e-01 1.0203557e-01 -1.9655384e-03 
1.1159662e-01 1.0087207e-01 -2.5286997e-04 
1.1169485e-01 1.0118343e-01 -1.8455717e-03 
1.1174508e-01 1.0110491e-01 -8.6696388e-04 
1.1095116e-01 1.0037108e-01 -1.4158176e-03 
1.1100615e-01 1.0028828e-01 -3.7453123e-04 
1.1099868e-01 1.0049077e-01 -1.9569695e-03 
1.1108367e-01 1.0037486e-01 -4.3046975e-04 
1.1049298e-01 9.9827871e-02 -8.2926179e-04 
1.1197437e-01 1.0153877e-01 -2.3795324e-03 
1.1035805e-01 9.9824086e-02 -1.8352882e-03 
1.1044251e-01 9.9698208e-02 -2.3978045e-04 
1.1009202e-01 9.9499032e-02 -1.4189322e-03 
1.1014738e-01 9.9415392e-02 -3.6642107e-04 
1.1118019e-01 1.0062964e-01 -1.6129151e-03 
1.1114933e-01 1.0064604e-01 -1.9750441e-03 
1.1051941e-01 9.9989384e-02 -1.8514309e-03 
1.1056535e-01 9.9906377e-02 -8.6560578e-04 
1.0990482e-01 9.9243976e-02 -9.3120994e-04 
1.0963099e-01 9.8952070e-02 -8.2371774e-04 
1.0983268e-01 9.9307433e-02 -1.9680592e-03 
1.0993074e-01 9.9202290e-02 -4.1533468e-04 
1.0923242e-01 9.8625548e-02 -1.4141310e-03 
1.0928799e-01 9.8542824e-02 -3.6127926e-04 
1.0918736e-01 9.8636545e-02 -1.8460199e-03 
1.1060297e-01 1.0014527e-01 -2.3889705e-03 
1.0929146e-01 9.8528787e-02 -2.2747325e-04 
1.0877537e-01 9.8083615e-02 -8.1867661e-04 
1.0932095e-01 9.8773301e-02 -1.8608713e-03 
1.0940018e-01 9.8719627e-02 -8.3596795e-04 
1.0980961e-01 9.9238314e-02 -1.6216006e-03 
1.0977937e-01 9.9255145e-02 -1.9846261e-03 
1.0876223e-01 9.8083705e-02 -9.2475023e-04 
1.0837950e-01 9.7759731e-02 -1.4090557e-03 
1.0867068e-01 9.8128922e-02 -1.9791103e-03 
1.0843463e-01 9.7676747e-02 -3.5596971e-04 
1.0878824e-01 9.8041058e-02 -3.9641903e-04 
1.0792627e-01 9.7221605e-02 -8.1310293e-04 
1.0803778e-01 9.7471237e-02 -1.8560252e-03 
1.0815918e-01 9.7379513e-02 -2.1549755e-04 
1.0923139e-01 9.8752566e-02 -2.3977181e-03 
1.0816792e-01 9.7604774e-02 -1.8722416e-03 
1.0826675e-01 9.7565815e-02 -8.0493034e-04 
1.0753221e-01 9.6899860e-02 -1.4042078e-03 
1.0758749e-01 9.6817672e-02 -3.5081155e-04 
1.0835882e-01 9.7804330e-02 -1.9181558e-03 
1.0840504e-01 9.7787574e-02 -1.4281634e-03 
1.0752939e-01 9.6972562e-02 -1.9894531e-03 
1.0766386e-01 9.6898705e-02 -3.7792139e-04 
1.0735078e-01 9.6651666e-02 -9.1538113e-04 
1.0708310e-01 9.6366726e-02 -8.0787926e-04 
1.0704502e-01 9.6249156e-02 -2.0340731e-04 
1.0690782e-01 9.6326664e-02 -1.8652064e-03 
1.0669151e-01 9.6047007e-02 -1.3988401e-03 
1.0674658e-01 9.5965572e-02 -3.4579993e-04 
1.0715099e-01 9.6431181e-02 -7.7472464e-04 
1.0703481e-01 9.6457317e-02 -1.8836349e-03 
1.0786238e-01 9.7364329e-02 -2.4060754e-03 
1.0624579e-01 9.5518380e-02 -8.0289395e-04 
1.0655721e-01 9.5775396e-02 -3.5991074e-04 
1.0640749e-01 9.5836990e-02 -1.9991265e-03 
1.0704482e-01 9.6483059e-02 -2.0030092e-03 
1.0695161e-01 9.6318468e-02 -1.4619670e-03 
1.0585653e-01 9.5200852e-02 -1.3933546e-03 
1.0589338e-01 9.5102429e-02 -3.4994690e-04 
1.0594837e-01 9.5136911e-02 -1.9071790e-04 
1.0579748e-01 9.5203176e-02 -1.8744395e-03 
1.0557532e-01 9.4856963e-02 -9.3931798e-04 
1.0541433e-01 9.4675817e-02 -7.9735316e-04 
1.0605217e-01 9.5314674e-02 -7.4586901e-04 
1.0581033e-01 9.5213801e-02 -1.8628947e-03 
1.0546724e-01 9.4670512e-02 -3.4308204e-04 
1.0530501e-01 9.4721220e-02 -2.0079685e-03 
1.0502708e-01 9.4360292e-02 -1.3874046e-03 
1.0649706e-01 9.5981583e-02 -2.4140398e-03 
1.0508173e-01 9.4279610e-02 -3.3539927e-04 
1.0499011e-01 9.4257556e-02 -8.8296819e-04 
1.0570288e-01 9.5053867e-02 -1.4624002e-03 
1.0458865e-01 9.3840115e-02 -7.9215941e-04 
1.0486759e-01 9.4043165e-02 -1.8000598e-04 
1.0470574e-01 9.4098642e-02 -1.8818480e-03 
1.0568128e-01 9.5102966e-02 -2.0106304e-03 
1.0497054e-01 9.4217025e-02 -7.1717822e-04 
1.0482671e-01 9.4223283e-02 -1.9041991e-03 
1.0420353e-01 9.3526639e-02 -1.3818864e-03 
1.0425819e-01 9.3446411e-02 -3.3033371e-04 
1.0439431e-01 9.3583673e-02 -3.2587699e-04 
1.0422104e-01 9.3625054e-02 -2.0157213e-03 
1.0395407e-01 9.3192346e-02 -7.4434077e-04 
1.0376835e-01 9.3010485e-02 -7.8698416e-04 
1.0513333e-01 9.4601527e-02 -2.4209120e-03 
1.0380381e-01 9.2966668e-02 -1.6799688e-04 
1.0363190e-01 9.3013577e-02 -1.8891344e-03 
1.0445040e-01 9.3766823e-02 -1.3115057e-03 
1.0433082e-01 9.3720175e-02 -1.8906179e-03 
1.0338531e-01 9.2699051e-02 -1.3758905e-03 
1.0390529e-01 9.3136251e-02 -6.8961357e-04 
1.0336784e-01 9.2539832e-02 -2.7477354e-04 
1.0375030e-01 9.3135804e-02 -1.9142734e-03 
1.0295319e-01 9.2186540e-02 -7.8205887e-04 
1.0333715e-01 9.2513353e-02 -3.0880392e-04 
1.0315472e-01 9.2547983e-02 -2.0228059e-03 
1.0262704e-01 9.1797926e-02 -3.2052939e-04 
1.0255662e-01 9.1853864e-02 -1.3125021e-03 
1.0275579e-01 9.1906898e-02 -1.5652369e-04 
1.0257509e-01 9.1946639e-02 -1.8957109e-03 
1.0377184e-01 9.3224287e-02 -2.4262939e-03 
1.0238364e-01 9.1643959e-02 -1.0391537e-03 
1.0285588e-01 9.2073202e-02 -6.6294236e-04 
1.0269089e-01 9.2066221e-02 -1.9238722e-03 
1.0214373e-01 9.1369115e-02 -7.7733555e-04 
1.0229548e-01 9.1460720e-02 -2.9315476e-04 
1.0296116e-01 9.2352405e-02 -2.0231279e-03 
1.0298846e-01 9.2333801e-02 -1.6607146e-03 
1.0194088e-01 9.1098391e-02 -2.6298259e-04 
1.0210504e-01 9.1487885e-02 -2.0289135e-03 
1.0184265e-01 9.1148905e-02 -1.4374976e-03 
1.0263447e-01 9.1900945e-02 -1.0699831e-03 
1.0245371e-01 9.1819100e-02 -1.8656515e-03 
1.0172252e-01 9.0863645e-02 -1.4578181e-04 
1.0153628e-01 9.0897799e-02 -1.8998571e-03 
1.0134003e-01 9.0557605e-02 -7.7223242e-04 
1.0182165e-01 9.1026023e-02 -6.3698302e-04 
1.0164931e-01 9.1015421e-02 -1.9326883e-03 
1.0241213e-01 9.1849916e-02 -2.4304448e-03 
1.0105481e-01 9.0202026e-02 -2.3804946e-04 
1.0095752e-01 9.0256818e-02 -1.4433578e-03 
1.0126925e-01 9.0423182e-02 -2.7754786e-04 
1.0107297e-01 9.0447024e-02 -2.0347943e-03 
1.0054165e-01 8.9751765e-02 -7.6705194e-04 
1.0160485e-01 9.0983234e-02 -2.0275831e-03 
1.0163137e-01 9.0964429e-02 -1.6659845e-03 
1.0070475e-01 8.9835696e-02 -1.3414900e-04 
1.0051356e-01 8.9867078e-02 -1.9047374e-03 
1.0080238e-01 8.9994960e-02 -6.1176391e-04 
1.0010104e-01 8.9390561e-02 -1.4228942e-03 
1.0051141e-01 8.9871280e-02 -1.9629963e-03 
1.0078304e-01 9.0029217e-02 -1.0381526e-03 
1.0004180e-01 8.9179896e-02 -2.3008292e-04 
1.0025744e-01 8.9401737e-02 -2.6235296e-04 
1.0005723e-01 8.9422770e-02 -2.0392677e-03 
9.9747866e-02 8.8951692e-02 -7.6200481e-04 
1.0105619e-01 9.0480648e-02 -2.4331962e-03 
9.9581651e-02 8.8812649e-02 -9.9246146e-04 
9.9701039e-02 8.8824056e-02 -1.2330087e-04 
1.0016404e-01 8.9509100e-02 -1.8673035e-03 
9.9386245e-02 8.8654943e-02 -1.2986617e-03 
9.9506743e-02 8.8852011e-02 -1.9086805e-03 
9.9429607e-02 8.8572785e-02 -3.0165221e-04 
9.9797495e-02 8.8979624e-02 -5.8712647e-04 
1.0025176e-01 8.9618325e-02 -2.0306529e-03 
1.0027777e-01 8.9599326e-02 -1.6696771e-03 
9.9614851e-02 8.8965118e-02 -1.9483011e-03 
9.9127389e-02 8.8253893e-02 -1.8287463e-04 
9.8959513e-02 8.8157475e-02 -7.5718859e-04 
9.9259906e-02 8.8395879e-02 -2.4680051e-04 
9.9056885e-02 8.8415071e-02 -2.0432617e-03 
9.8761149e-02 8.7900929e-02 -3.0679238e-04 
9.8589569e-02 8.7857254e-02 -1.3355045e-03 
9.8711461e-02 8.7826379e-02 -1.1250111e-04 
9.8515123e-02 8.7854095e-02 -1.9118580e-03 
9.9702708e-02 8.9115813e-02 -2.4353981e-03 
9.8806359e-02 8.7979130e-02 -5.6323031e-04 
9.8176152e-02 8.7368630e-02 -7.5210806e-04 
9.8511823e-02 8.7857656e-02 -1.9756821e-03 
9.8110348e-02 8.7233432e-02 -2.0469655e-04 
9.8786980e-02 8.8022277e-02 -1.0693088e-03 
9.8276012e-02 8.7404348e-02 -2.3235359e-04 
9.8119058e-02 8.7318875e-02 -8.1765867e-04 
9.7862810e-02 8.7139025e-02 -1.4406027e-03 
9.8901130e-02 8.8257745e-02 -2.0333123e-03 
9.8071806e-02 8.7423429e-02 -2.0466531e-03 
9.8926552e-02 8.8238619e-02 -1.6731860e-03 
9.7735181e-02 8.6844184e-02 -1.0254370e-04 
9.8176509e-02 8.7505706e-02 -1.8598399e-03 