# vtk DataFile Version 4.0
vtk output
ASCII
DATASET UNSTRUCTURED_GRID
POINTS 4496 float
-4.3633327e-01 9.6409470e-01 4.4200001e+01 
-4.3633258e-01 9.6409065e-01 4.4074627e+01 
-3.2152572e-01 9.1279918e-01 4.4200001e+01 
-3.8534868e-01 8.4052670e-01 4.4200001e+01 
-3.9589554e-01 8.5545403e-01 4.4010014e+01 
-3.2616228e-01 9.1667932e-01 4.4011734e+01 
-4.3633190e-01 9.6408653e-01 4.3948376e+01 
-2.1293370e-01 8.4677851e-01 4.4200001e+01 
-2.9042658e-01 7.3813015e-01 4.4200001e+01 
-2.1010752e-01 8.4669363e-01 4.4073502e+01 
-2.8908840e-01 7.3604190e-01 4.4072292e+01 
-3.9589015e-01 8.5505831e-01 4.3883316e+01 
-3.2487559e-01 9.1697580e-01 4.3885036e+01 
-2.0722924e-01 8.4660655e-01 4.3944645e+01 
-1.1981077e-01 7.7773046e-01 4.4200001e+01 
-2.8772619e-01 7.3391593e-01 4.3942276e+01 
-4.3633121e-01 9.6408242e-01 4.3821228e+01 
-1.9739023e-01 6.6468561e-01 4.4200001e+01 
-2.9444304e-01 7.8727525e-01 4.3879974e+01 
-8.7554991e-02 7.5255024e-01 4.4042213e+01 
-1.6445170e-01 6.4084798e-01 4.4041008e+01 
-3.2357255e-01 9.1726828e-01 4.3757431e+01 
-3.9587301e-01 8.5463828e-01 4.3755711e+01 
-2.0429766e-01 8.4651643e-01 4.3813354e+01 
-2.8633916e-01 7.3175091e-01 4.3809875e+01 
-2.6899619e-02 6.8901783e-01 4.4200001e+01 
-1.0567340e-01 7.7152997e-01 4.3875790e+01 
-4.3633053e-01 9.6407831e-01 4.3693161e+01 
-8.7133333e-02 5.9509218e-01 4.4200001e+01 
-1.8777622e-01 6.5475601e-01 4.3873402e+01 
-2.0131156e-01 8.4642249e-01 4.3679543e+01 
-3.2225290e-01 9.1755641e-01 4.3628902e+01 
-3.9584404e-01 8.5419410e-01 4.3627178e+01 
-1.0114321e-03 6.6670936e-01 4.3939713e+01 
-2.8492665e-01 7.2954547e-01 4.3675007e+01 
-1.0131179e-01 7.7015632e-01 4.3743176e+01 
-6.0682178e-02 5.7631296e-01 4.3938457e+01 
3.9444737e-02 6.2338209e-01 4.4053139e+01 
-1.8470748e-01 6.5131217e-01 4.3739727e+01 
-7.0938184e-03 5.4737431e-01 4.4052326e+01 
-4.3632981e-01 9.6407413e-01 4.3564159e+01 
7.6947339e-02 5.8804804e-01 4.4200001e+01 
-1.2721874e-02 6.8194175e-01 4.3817982e+01 
-7.7214435e-02 5.8474159e-01 4.3819649e+01 
4.0195532e-02 5.2425718e-01 4.4200001e+01 
-1.9826968e-01 8.4632379e-01 4.3543118e+01 
-9.6842363e-02 7.6872379e-01 4.3607994e+01 
-3.2091641e-01 9.1783977e-01 4.3499420e+01 
-3.9580306e-01 8.5372573e-01 4.3497700e+01 
-2.8348783e-01 7.2729832e-01 4.3537586e+01 
-1.8155001e-01 6.4778340e-01 4.3603539e+01 
1.5678726e-01 5.2239102e-01 4.4060219e+01 
1.0298219e-02 6.6009766e-01 4.3674484e+01 
1.3250886e-01 4.7546524e-01 4.4058990e+01 
-4.3632913e-01 9.6407002e-01 4.3434200e+01 
-5.0139543e-02 5.6696451e-01 4.3671154e+01 
1.3504514e-01 5.4209155e-01 4.3856747e+01 
1.0361936e-01 4.8715758e-01 4.3855240e+01 
2.0846681e-01 4.8028421e-01 4.4200001e+01 
1.9279444e-01 4.4799727e-01 4.4200001e+01 
-9.2261828e-02 7.6722860e-01 4.3470158e+01 
-1.4701239e-03 6.7547697e-01 4.3552124e+01 
-1.9517080e-01 8.4621930e-01 4.3403992e+01 
-3.1956279e-01 9.1811794e-01 4.3368977e+01 
-3.9574999e-01 8.5323322e-01 4.3367252e+01 
-1.7830023e-01 6.4416617e-01 4.3464752e+01 
-6.7131944e-02 5.7555372e-01 4.3547829e+01 
-2.8202194e-01 7.2500783e-01 4.3397518e+01 
-4.3632844e-01 9.6406585e-01 4.3303261e+01 
1.5138821e-01 5.3037512e-01 4.3609200e+01 
1.2119007e-01 4.7490793e-01 4.3606068e+01 
-8.7566733e-02 7.6566672e-01 4.3329563e+01 
-1.7495437e-01 6.4045686e-01 4.3323273e+01 
-3.1819177e-01 9.1839045e-01 4.3237537e+01 
-3.9568463e-01 8.5271639e-01 4.3235813e+01 
2.2269404e-02 6.5294570e-01 4.3398811e+01 
-1.9201367e-01 8.4610778e-01 4.3262066e+01 
-3.8899176e-02 5.5709696e-01 4.3393635e+01 
-2.8052819e-01 7.2267252e-01 4.3254715e+01 
3.7877345e-01 3.8273901e-01 4.4200001e+01 
-4.3632776e-01 9.6406174e-01 4.3171322e+01 
3.9241230e-01 3.7329337e-01 4.3965439e+01 
1.0283732e-02 6.6872352e-01 4.3271511e+01 
-5.6385640e-02 5.6585240e-01 4.3265472e+01 
-8.2753494e-02 7.6403379e-01 4.3186119e+01 
-4.0345609e-01 8.6371827e-01 4.3104889e+01 
-3.1680310e-01 9.1865683e-01 4.3105087e+01 
-1.7150842e-01 6.3665158e-01 4.3179005e+01 
-1.8879703e-01 8.4598809e-01 4.3117241e+01 
-2.7900568e-01 7.2029078e-01 4.3109074e+01 
4.0610775e-01 3.6380205e-01 4.3729839e+01 
1.6776134e-01 5.1882964e-01 4.3331150e+01 
-4.3632707e-01 9.6405768e-01 4.3038357e+01 
1.4031014e-01 4.6124566e-01 4.3307755e+01 
3.4952711e-02 6.4519531e-01 4.3111935e+01 
-7.7818394e-02 7.6232505e-01 4.3039719e+01 
-3.1539652e-01 9.1891652e-01 4.2971603e+01 
-3.9551663e-01 8.5160977e-01 4.2969879e+01 
-2.6899155e-02 5.4666573e-01 4.3105160e+01 
-1.6795819e-01 6.3274628e-01 4.3031849e+01 
-1.8551964e-01 8.4585863e-01 4.2969406e+01 
4.1985780e-01 3.5425979e-01 4.3493168e+01 
-2.7745360e-01 7.1786088e-01 4.2960495e+01 
-4.3632638e-01 9.6405357e-01 4.2904346e+01 
2.2723136e-02 6.6139150e-01 4.2979332e+01 
-4.4916678e-02 5.5559248e-01 4.2971806e+01 
-3.1397179e-01 9.1916907e-01 4.2837063e+01 
-3.9541367e-01 8.5101974e-01 4.2835335e+01 
-7.2757579e-02 7.6053542e-01 4.2890255e+01 
-1.6429928e-01 6.2873662e-01 4.2881699e+01 
1.8463810e-01 5.0694346e-01 4.3035332e+01 
-1.8218029e-01 8.4571803e-01 4.2818455e+01 
1.5503895e-01 4.5003417e-01 4.3027725e+01 
-2.7587104e-01 7.1538109e-01 4.2808868e+01 
4.3366045e-01 3.4466109e-01 4.3255390e+01 
-4.3632573e-01 9.6404958e-01 4.2769268e+01 
-3.8429454e-01 8.3484912e-01 4.2710606e+01 
-3.1252861e-01 9.1941386e-01 4.2701439e+01 
4.8404284e-02 6.3678014e-01 4.2813030e+01 
-1.4070326e-02 5.3562075e-01 4.2804932e+01 
-6.7567028e-02 7.5865942e-01 4.2737610e+01 
-1.6052702e-01 6.2461799e-01 4.2728443e+01 
-1.7877772e-01 8.4556442e-01 4.2664265e+01 
-4.3632504e-01 9.6404558e-01 4.2633099e+01 
-2.7425703e-01 7.1284944e-01 4.2654083e+01 
4.4751364e-01 3.3500037e-01 4.3016472e+01 
3.5901129e-02 6.5341437e-01 4.2674721e+01 
-3.7959340e-01 8.2794034e-01 4.2568317e+01 
-3.1106678e-01 9.1965032e-01 4.2564713e+01 
-3.2659348e-02 5.4472327e-01 4.2665997e+01 
2.0396979e-01 4.9291667e-01 4.2740131e+01 
-6.2242586e-02 7.5669110e-01 4.2581669e+01 
1.7765003e-01 4.3475360e-01 4.2732578e+01 
-1.5663649e-01 6.2038553e-01 4.2571964e+01 
-4.3632439e-01 9.6404165e-01 4.2495808e+01 
-1.7531081e-01 8.4539592e-01 4.2506718e+01 
-2.7261066e-01 7.1026409e-01 4.2496017e+01 
-3.0958602e-01 9.1987789e-01 4.2426853e+01 
-3.7859210e-01 8.2613736e-01 4.2421188e+01 
4.6141517e-01 3.2527190e-01 4.2776375e+01 
6.2686495e-02 6.2762415e-01 4.2501175e+01 
-3.3570320e-04 5.2390522e-01 4.2492062e+01 
-5.6779940e-02 7.5462401e-01 4.2422298e+01 
-4.3632373e-01 9.6403772e-01 4.2357380e+01 
-1.5262254e-01 6.1603409e-01 4.2412144e+01 
-1.7177837e-01 8.4521037e-01 4.2345684e+01 
-2.7093092e-01 7.0762289e-01 4.2334549e+01 
-3.0808610e-01 9.2009580e-01 4.2287842e+01 
-3.8275370e-01 8.3137155e-01 4.2275047e+01 
4.9876589e-02 6.4471585e-01 4.2356720e+01 
-1.9539909e-02 5.3318781e-01 4.2347118e+01 
-4.3632311e-01 9.6403396e-01 4.2217781e+01 
2.1959943e-01 4.8236796e-01 4.2385345e+01 
-5.1174615e-02 7.5245124e-01 4.2259373e+01 
1.9034323e-01 4.2346162e-01 4.2378918e+01 
-1.4847966e-01 6.1155808e-01 4.2248856e+01 
4.7536272e-01 3.1546980e-01 4.2535065e+01 
-1.6817927e-01 8.4500539e-01 4.2181026e+01 
-2.6921678e-01 7.0492369e-01 4.2169544e+01 
-3.0656675e-01 9.2030340e-01 4.2147648e+01 
-3.9470181e-01 8.4769493e-01 4.2145920e+01 
7.7868804e-02 6.1763972e-01 4.2175373e+01 
-4.3632248e-01 9.6403021e-01 4.2076988e+01 
1.4390758e-02 5.1145434e-01 4.2165581e+01 
-4.5421973e-02 7.5016522e-01 4.2092751e+01 
-1.4420210e-01 6.0695171e-01 4.2081959e+01 
-3.0502778e-01 9.2049998e-01 4.2006248e+01 
-4.0175444e-01 8.5747409e-01 4.2004128e+01 
-1.6451253e-01 8.4477836e-01 4.2012604e+01 
4.8935395e-01 3.0558801e-01 4.2292507e+01 
-2.6746723e-01 7.0216429e-01 4.2000870e+01 
6.4714879e-02 6.3520777e-01 4.2024277e+01 
-4.3632188e-01 9.6402657e-01 4.1934975e+01 
-5.4755262e-03 5.2092212e-01 4.2014156e+01 
-2.3078828e-01 8.1064087e-01 4.1931458e+01 
2.3550548e-01 4.7116494e-01 4.2073269e+01 
2.0610523e-01 4.1123796e-01 4.2066772e+01 
-3.9517213e-02 7.4775779e-01 4.1922287e+01 
-1.3978374e-01 6.0220873e-01 4.1911320e+01 
-3.0346894e-01 9.2068475e-01 4.1863613e+01 
-3.9432141e-01 8.4618556e-01 4.1861881e+01 
-1.6077711e-01 8.4452641e-01 4.1840263e+01 
-2.6568118e-01 6.9934219e-01 4.1828377e+01 
-4.3632129e-01 9.6402299e-01 4.1791718e+01 
5.0338638e-01 2.9562023e-01 4.2048656e+01 
9.4028555e-02 6.0672593e-01 4.1834507e+01 
3.0205652e-02 4.9819478e-01 4.1824417e+01 
-3.8116732e-01 8.2744831e-01 4.1725647e+01 
-3.0189002e-01 9.2085695e-01 4.1719719e+01 
-3.3455357e-02 7.4522001e-01 4.1747829e+01 
-1.3521814e-01 5.9732240e-01 4.1736786e+01 
-4.3632072e-01 9.6401960e-01 4.1647179e+01 
-1.5697217e-01 8.4424627e-01 4.1663853e+01 
-2.6385748e-01 6.9645494e-01 4.1651920e+01 
8.0488607e-02 6.2478805e-01 4.1676235e+01 
2.6870471e-01 4.4547972e-01 4.1752304e+01 
9.6269641e-03 5.0785345e-01 4.1665993e+01 
2.4764967e-01 3.8646612e-01 4.1743168e+01 
-3.0029076e-01 9.2101562e-01 4.1574532e+01 
-3.9388368e-01 8.4456980e-01 4.1572796e+01 
5.1745731e-01 2.8556010e-01 4.1803486e+01 
-2.7231261e-02 7.4254233e-01 4.1569210e+01 
-1.3049847e-01 5.9228569e-01 4.1558201e+01 
-4.3632016e-01 9.6401632e-01 4.1501339e+01 
-1.5309690e-01 8.4393430e-01 4.1483204e+01 
-2.6199502e-01 6.9349992e-01 4.1471333e+01 
-2.9867104e-01 9.2115986e-01 4.1428024e+01 
-3.9364263e-01 8.4372103e-01 4.1426289e+01 
1.1125199e-01 5.9476525e-01 4.1477348e+01 
4.7217656e-02 4.8404291e-01 4.1467384e+01 
-4.3631962e-01 9.6401310e-01 4.1354160e+01 
-2.0839609e-02 7.3971421e-01 4.1386261e+01 
-1.2561750e-01 5.8709091e-01 4.1375404e+01 
5.3156406e-01 2.7540097e-01 4.1556946e+01 
-1.4915068e-01 8.4358656e-01 4.1298138e+01 
-2.9703063e-01 9.2128879e-01 4.1280167e+01 
-3.9338648e-01 8.4284443e-01 4.1278431e+01 
-2.6009262e-01 6.9047421e-01 4.1286449e+01 
2.9365057e-01 4.2687622e-01 4.1391586e+01 
9.7278498e-02 6.1333776e-01 4.1311302e+01 
2.7470219e-01 3.6807936e-01 4.1382729e+01 
2.5872495e-02 4.9389899e-01 4.1301384e+01 
-4.3631911e-01 9.6401012e-01 4.1205620e+01 
-1.4274905e-02 7.3672432e-01 4.1198803e+01 
-1.2056758e-01 5.8173001e-01 4.1188221e+01 
-2.9536936e-01 9.2140132e-01 4.1130928e+01 
[...]
POINT_DATA 4496
FIELD FieldData 5
DISPLACEMENT 3 4496  float
6.1427496e-02 5.7869788e-02 -4.1901227e-04 
6.1138608e-02 5.7565209e-02 -4.1829969e-04 
6.1457418e-02 5.7937007e-02 -5.5917789e-04 
6.1500214e-02 5.7899952e-02 -2.3653945e-04 
6.1053667e-02 5.7432204e-02 -2.4740363e-04 
6.1021332e-02 5.7476908e-02 -5.5684958e-04 
6.0847718e-02 5.7258528e-02 -4.1757995e-04 
6.1496049e-02 5.8000658e-02 -6.4926909e-04 
6.1560344e-02 5.7955723e-02 -2.0677393e-04 
6.1204594e-02 5.7694979e-02 -6.5486832e-04 
6.1267283e-02 5.7646245e-02 -2.0407086e-04 
6.0761970e-02 5.7124440e-02 -2.4574253e-04 
6.0729235e-02 5.7169877e-02 -5.5982493e-04 
6.0907722e-02 5.7383597e-02 -6.6056411e-04 
6.1536517e-02 5.8055293e-02 -6.9634855e-04 
6.0968924e-02 5.7331197e-02 -2.0132841e-04 
6.0554784e-02 5.6949694e-02 -4.1685181e-04 
6.1603416e-02 5.8010321e-02 -2.4296291e-04 
6.0793933e-02 5.7175756e-02 -3.1505295e-04 
6.1187673e-02 5.7690859e-02 -7.0870179e-04 
6.1250981e-02 5.7643346e-02 -2.6013926e-04 
6.0435090e-02 5.6860682e-02 -5.6279305e-04 
6.0468212e-02 5.6814514e-02 -2.4405756e-04 
6.0605258e-02 5.7066340e-02 -6.6635903e-04 
6.0665097e-02 5.7010379e-02 -1.9853374e-04 
6.1588597e-02 5.8109887e-02 -6.9519272e-04 
6.0793038e-02 5.7275843e-02 -7.1206171e-04 
6.0259808e-02 5.6638673e-02 -4.1610695e-04 
6.1644189e-02 5.8074988e-02 -3.2819947e-04 
6.0856581e-02 5.7222467e-02 -2.3919444e-04 
6.0297020e-02 5.6743011e-02 -6.7224557e-04 
6.0138848e-02 5.6549273e-02 -5.6579511e-04 
6.0172379e-02 5.6502406e-02 -2.4235138e-04 
6.1001837e-02 5.7492610e-02 -6.9926452e-04 
6.0355611e-02 5.6683611e-02 -1.9569571e-04 
6.0488265e-02 5.6956179e-02 -7.1802625e-04 
6.1052412e-02 5.7454996e-02 -3.4211890e-04 
6.1288677e-02 5.7792027e-02 -6.8798289e-04 
6.0550526e-02 5.6899514e-02 -2.3717106e-04 
6.1331786e-02 5.7763096e-02 -3.9604903e-04 
5.9962690e-02 5.6325473e-02 -4.1536044e-04 
6.1647911e-02 5.8170963e-02 -6.8948133e-04 
6.0712352e-02 5.7189908e-02 -7.0856465e-04 
6.0773652e-02 5.7156626e-02 -3.2380206e-04 
6.1685678e-02 5.8149677e-02 -4.4978448e-04 
5.9982799e-02 5.6413390e-02 -6.7822495e-04 
6.0177632e-02 5.6630351e-02 -7.2407385e-04 
5.9840471e-02 5.6235634e-02 -5.6879653e-04 
5.9874400e-02 5.6188047e-02 -2.4057462e-04 
6.0040303e-02 5.6350701e-02 -1.9280736e-04 
6.0238749e-02 5.6570526e-02 -2.3513116e-04 
6.1364267e-02 5.7878166e-02 -7.1337481e-04 
6.0394458e-02 5.6854691e-02 -7.0780219e-04 
6.1389197e-02 5.7861131e-02 -5.4337701e-04 
5.9663437e-02 5.6009959e-02 -4.1458933e-04 
6.0441781e-02 5.6811653e-02 -3.4224192e-04 
6.0883705e-02 5.7370845e-02 -7.0994784e-04 
6.0912699e-02 5.7349004e-02 -5.0399976e-04 
6.1711200e-02 5.8248293e-02 -7.3107786e-04 
6.1730310e-02 5.8239225e-02 -6.1648176e-04 
5.9860941e-02 5.6298140e-02 -7.3021435e-04 
6.0103487e-02 5.6550462e-02 -7.1730255e-04 
5.9662405e-02 5.6077302e-02 -6.8430253e-04 
5.9539896e-02 5.5919692e-02 -5.7183218e-04 
5.9574250e-02 5.5871412e-02 -2.3878990e-04 
5.9921049e-02 5.6235321e-02 -2.3309844e-04 
6.0152523e-02 5.6502089e-02 -3.2325732e-04 
5.9718937e-02 5.6011431e-02 -1.8987694e-04 
5.9361964e-02 5.5692170e-02 -4.1382358e-04 
6.0319945e-02 5.6778666e-02 -7.1780512e-04 
6.0345441e-02 5.6753647e-02 -5.1337294e-04 
5.9537984e-02 5.5959363e-02 -7.3641195e-04 
5.9597202e-02 5.5893663e-02 -2.3104125e-04 
5.9237126e-02 5.5601452e-02 -5.7485711e-04 
5.9271898e-02 5.5552468e-02 -2.3697705e-04 
5.9763383e-02 5.6191806e-02 -7.1647065e-04 
5.9335619e-02 5.5734482e-02 -6.9045834e-04 
5.9807908e-02 5.6143939e-02 -3.4268000e-04 
5.9391323e-02 5.5665597e-02 -1.8689154e-04 
6.1768346e-02 5.8348261e-02 -8.8692823e-04 
5.9058245e-02 5.5372011e-02 -4.1305466e-04 
6.1233107e-02 5.7785969e-02 -8.9412206e-04 
5.9460867e-02 5.5875506e-02 -7.2639395e-04 
5.9507441e-02 5.5822425e-02 -3.2295354e-04 
5.9208553e-02 5.5613760e-02 -7.4269605e-04 
5.8963995e-02 5.5230223e-02 -2.4505728e-04 
5.8932025e-02 5.5280779e-02 -5.7792448e-04 
5.9267044e-02 5.5545378e-02 -2.2898987e-04 
5.9002232e-02 5.5384755e-02 -6.9670350e-04 
5.9057292e-02 5.5313013e-02 -1.8382655e-04 
6.0695421e-02 5.7221074e-02 -9.0132857e-04 
5.9685759e-02 5.6112371e-02 -7.2597835e-04 
5.8752213e-02 5.5049494e-02 -4.1227610e-04 
5.9665672e-02 5.6039747e-02 -5.2264682e-04 
5.9106946e-02 5.5502210e-02 -7.2525133e-04 
5.8872417e-02 5.5261128e-02 -7.4903457e-04 
5.8624703e-02 5.4957744e-02 -5.8095454e-04 
5.8660287e-02 5.4907367e-02 -2.3321506e-04 
5.9149168e-02 5.5450194e-02 -3.4346682e-04 
5.8930293e-02 5.5190191e-02 -2.2691306e-04 
5.8661997e-02 5.5027816e-02 -7.0301996e-04 
6.0155213e-02 5.6653380e-02 -9.0853893e-04 
5.8716528e-02 5.4953385e-02 -1.8073650e-04 
5.8443937e-02 5.4724492e-02 -4.1145162e-04 
5.8792077e-02 5.5173002e-02 -7.3557493e-04 
5.8836706e-02 5.5115923e-02 -3.2294405e-04 
5.8314990e-02 5.4632232e-02 -5.8404508e-04 
5.8351025e-02 5.4581195e-02 -2.3131086e-04 
5.8529332e-02 5.4901186e-02 -7.5544929e-04 
5.8586787e-02 5.4827929e-02 -2.2485958e-04 
5.9010867e-02 5.5403199e-02 -7.3439913e-04 
5.8314659e-02 5.4663435e-02 -7.0941244e-04 
5.9026666e-02 5.5367775e-02 -5.2787515e-04 
5.8368895e-02 5.4586567e-02 -1.7760758e-04 
5.9612460e-02 5.6083031e-02 -9.1581239e-04 
5.8133207e-02 5.4397125e-02 -4.1062731e-04 
5.8073413e-02 5.4285355e-02 -2.1701057e-04 
5.8002912e-02 5.4304302e-02 -5.8706960e-04 
5.8423348e-02 5.4784067e-02 -7.3410955e-04 
5.8463804e-02 5.4728657e-02 -3.4467908e-04 
5.8179028e-02 5.4533735e-02 -7.6191657e-04 
5.8236212e-02 5.4458309e-02 -2.2276756e-04 
5.7960037e-02 5.4291464e-02 -7.1587478e-04 
5.7820112e-02 5.4067228e-02 -4.0976721e-04 
5.8014061e-02 5.4212160e-02 -1.7439883e-04 
5.9067044e-02 5.5509843e-02 -9.2300761e-04 
5.8095247e-02 5.4441068e-02 -7.4480695e-04 
5.7750143e-02 5.3943343e-02 -2.1026509e-04 
5.7688408e-02 5.3973790e-02 -5.9006317e-04 
5.8138493e-02 5.4380774e-02 -3.2327889e-04 
5.8338713e-02 5.4697122e-02 -7.4330438e-04 
5.7821352e-02 5.4158490e-02 -7.6846295e-04 
5.8355186e-02 5.4663811e-02 -5.4137420e-04 
5.7878405e-02 5.4081108e-02 -2.2077488e-04 
5.7504598e-02 5.3734750e-02 -4.0884301e-04 
5.7597771e-02 5.3911529e-02 -7.2244700e-04 
5.7651810e-02 5.3830106e-02 -1.7115369e-04 
5.7371356e-02 5.3640738e-02 -5.9313438e-04 
5.7412859e-02 5.3587709e-02 -2.0742166e-04 
5.8519077e-02 5.4934081e-02 -9.3015749e-04 
5.7710640e-02 5.4035399e-02 -7.4297469e-04 
5.7749934e-02 5.3977426e-02 -3.4633355e-04 
5.7455938e-02 5.3775206e-02 -7.7496801e-04 
5.7186514e-02 5.3399779e-02 -4.0795610e-04 
5.7513028e-02 5.3696048e-02 -2.1871492e-04 
5.7227660e-02 5.3523388e-02 -7.2903285e-04 
5.7281889e-02 5.3440057e-02 -1.6784426e-04 
5.7051841e-02 5.3305119e-02 -5.9616595e-04 
5.7073943e-02 5.3231727e-02 -2.0974872e-04 
5.7368368e-02 5.3677604e-02 -7.5400365e-04 
5.7410929e-02 5.3615015e-02 -3.2396620e-04 
5.6865931e-02 5.3062234e-02 -4.0703986e-04 
5.7527550e-02 5.3844668e-02 -7.5182086e-04 
5.7082552e-02 5.3383611e-02 -7.8151008e-04 
5.7546858e-02 5.3812526e-02 -5.4150651e-04 
5.7139866e-02 5.3302936e-02 -2.1667028e-04 
5.7968378e-02 5.4355405e-02 -9.3722210e-04 
5.6849401e-02 5.3126756e-02 -7.3568244e-04 
5.6903984e-02 5.3041723e-02 -1.6447861e-04 
5.6729820e-02 5.2966945e-02 -5.9915986e-04 
5.6767948e-02 5.2912693e-02 -2.2106629e-04 
5.6966767e-02 5.3254161e-02 -7.5181457e-04 
5.6542750e-02 5.2721981e-02 -4.0613220e-04 
5.7005562e-02 5.3194549e-02 -3.4857859e-04 
5.6700904e-02 5.2983411e-02 -7.8808656e-04 
5.6758709e-02 5.2901443e-02 -2.1458426e-04 
5.6405008e-02 5.2625913e-02 -6.0226390e-04 
5.6436628e-02 5.2565955e-02 -2.2773362e-04 
5.6462687e-02 5.2721348e-02 -7.4238528e-04 
5.7414949e-02 5.3773910e-02 -9.4424939e-04 
5.6517962e-02 5.2634936e-02 -1.6098678e-04 
5.6609325e-02 5.2880634e-02 -7.6311262e-04 
5.6216735e-02 5.2378953e-02 -4.0523894e-04 
5.6651864e-02 5.2816655e-02 -3.2514462e-04 
5.6296177e-02 5.2487671e-02 -5.0698436e-04 
5.6815628e-02 5.3096887e-02 -7.5964426e-04 
5.6835163e-02 5.3064633e-02 -5.4675812e-04 
5.6310710e-02 5.2574355e-02 -7.9470116e-04 
5.6369163e-02 5.2491326e-02 -2.1249439e-04 
5.6077477e-02 5.2282102e-02 -6.0530659e-04 
5.6116421e-02 5.2226566e-02 -2.1677048e-04 
5.6067187e-02 5.2306935e-02 -7.4915914e-04 
5.6123406e-02 5.2219164e-02 -1.5743369e-04 
5.5888072e-02 5.2033104e-02 -4.0425459e-04 
5.6858893e-02 5.3189874e-02 -9.5123128e-04 
5.6189403e-02 5.2438073e-02 -7.6057634e-04 
5.6228440e-02 5.2377827e-02 -3.5140052e-04 
5.5814553e-02 5.1905259e-02 -2.0088789e-04 
5.5747364e-02 5.1935628e-02 -6.0825754e-04 
5.5911537e-02 5.2155945e-02 -8.0132950e-04 
5.5970877e-02 5.2072119e-02 -2.1038328e-04 
5.5556733e-02 5.1684439e-02 -4.0319157e-04 
5.5662602e-02 5.1882956e-02 -7.5597269e-04 
5.5719834e-02 5.1794186e-02 -1.5387611e-04 
5.5815585e-02 5.2047618e-02 -7.7206310e-04 
5.6091975e-02 5.2338321e-02 -7.7220378e-04 
5.5858824e-02 5.1983248e-02 -3.2682379e-04 
5.6104660e-02 5.2304499e-02 -5.8099622e-04 
5.5414353e-02 5.1586267e-02 -6.1129016e-04 
5.5454239e-02 5.1529493e-02 -2.1218172e-04 
5.6300309e-02 5.2603547e-02 -9.5810415e-04 
5.5503134e-02 5.1727928e-02 -8.0795452e-04 
5.5563617e-02 5.1643662e-02 -2.0838006e-04 
5.5222560e-02 5.1333077e-02 -4.0215687e-04 
5.5248521e-02 5.1449213e-02 -7.6274294e-04 
5.5307087e-02 5.1359776e-02 -1.5028361e-04 
5.5078618e-02 5.1234081e-02 -6.1422167e-04 
5.5118881e-02 5.1176786e-02 -2.0994773e-04 
5.5375900e-02 5.1584445e-02 -7.6913205e-04 
5.5416040e-02 5.1524781e-02 -3.5479854e-04 
5.4885458e-02 5.0978936e-02 -4.0115192e-04 
5.5085119e-02 5.1290028e-02 -8.1449049e-04 
5.5146970e-02 5.1205538e-02 -2.0627388e-04 
5.5738818e-02 5.2014142e-02 -9.6475030e-04 
5.4824639e-02 5.1005401e-02 -7.6950813e-04 
5.4739941e-02 5.0879106e-02 -6.1714352e-04 
5.4780565e-02 5.0821114e-02 -2.0753490e-04 
5.4884840e-02 5.0915487e-02 -1.4645932e-04 
5.5273511e-02 5.1480055e-02 -7.8276894e-04 
5.4984469e-02 5.1175736e-02 -7.8080728e-04 
5.5286482e-02 5.1448263e-02 -5.9723575e-04 
5.5029426e-02 5.1112313e-02 -3.2895090e-04 
5.4545537e-02 5.0621606e-02 -4.0009068e-04 
5.4657191e-02 5.0841827e-02 -8.2106818e-04 
5.4720521e-02 5.0757390e-02 -2.0418578e-04 
5.4398302e-02 5.0520912e-02 -6.2013190e-04 
5.4439433e-02 5.0462417e-02 -2.0518662e-04 
5.4390587e-02 5.0550971e-02 -7.7640428e-04 
5.4452602e-02 5.0461046e-02 -1.4265769e-04 
5.5174489e-02 5.1422097e-02 -9.7135449e-04 
5.4202508e-02 5.0261453e-02 -3.9902967e-04 
5.4523475e-02 5.0690487e-02 -7.7745446e-04 
5.4565512e-02 5.0632503e-02 -3.5899004e-04 
5.4053631e-02 5.0159827e-02 -6.2309927e-04 
5.4095160e-02 5.0100718e-02 -2.0271208e-04 
5.4218769e-02 5.0382763e-02 -8.2753686e-04 
5.4284073e-02 5.0298922e-02 -2.0214118e-04 
5.3856552e-02 4.9898092e-02 -3.9789043e-04 
5.3945925e-02 5.0085660e-02 -7.8311487e-04 
5.4009967e-02 4.9995929e-02 -1.3870942e-04 
5.4415613e-02 5.0581135e-02 -7.9396070e-04 
5.4429829e-02 5.0552566e-02 -6.1511138e-04 
5.4081630e-02 5.0227325e-02 -7.8134489e-04 
5.4607447e-02 5.0827581e-02 -9.7781350e-04 
5.3705998e-02 4.9795609e-02 -6.2590546e-04 
5.3747930e-02 4.9736064e-02 -2.0036574e-04 
5.4124974e-02 5.0170921e-02 -3.6128162e-04 
5.3769689e-02 4.9912758e-02 -8.3390001e-04 
5.3836998e-02 4.9829617e-02 -2.0010513e-04 
5.3507399e-02 4.9531929e-02 -3.9677773e-04 
5.3490080e-02 4.9608946e-02 -7.8990922e-04 
5.3556815e-02 4.9519908e-02 -1.3472635e-04 
5.3355210e-02 4.9428590e-02 -6.2867929e-04 
5.3397469e-02 4.9368311e-02 -1.9780241e-04 
5.3628903e-02 4.9752966e-02 -7.8522559e-04 
5.3395987e-02 4.9401987e-02 -3.4363411e-04 
5.3673867e-02 4.9698465e-02 -3.6394125e-04 
5.3155180e-02 4.9162433e-02 -3.9555281e-04 
5.4037210e-02 5.0229605e-02 -9.8401599e-04 
5.3704362e-02 4.9834698e-02 -7.9634727e-04 
5.3309355e-02 4.9431209e-02 -8.4000913e-04 
5.3726286e-02 4.9808774e-02 -5.9341529e-04 
5.3379133e-02 4.9349412e-02 -1.9804073e-04 
5.3001165e-02 4.9058069e-02 -6.3134742e-04 
5.3043846e-02 4.8997376e-02 -1.9526259e-04 
5.3023178e-02 4.9120788e-02 -7.9636922e-04 
5.3092349e-02 4.9032673e-02 -1.3084924e-04 
5.2799731e-02 4.8790012e-02 -3.9441558e-04 
5.3164884e-02 4.9267039e-02 -7.8903505e-04 
5.3211685e-02 4.9214751e-02 -3.6669968e-04 
5.2837472e-02 4.8937839e-02 -8.4618380e-04 
5.2644089e-02 4.8684545e-02 -6.3408824e-04 
5.2687161e-02 4.8623350e-02 -1.9265314e-04 
5.2909847e-02 4.8857607e-02 -1.9589918e-04 
5.3463809e-02 4.9629267e-02 -9.9022558e-04 
5.2544076e-02 4.8620332e-02 -8.0309389e-04 
5.2441061e-02 4.8414268e-02 -3.9317127e-04 
5.3110458e-02 4.9182244e-02 -6.7293056e-04 
5.3088006e-02 4.9195848e-02 -8.2797045e-04 
5.2616376e-02 4.8533618e-02 -1.2654506e-04 
5.2689020e-02 4.8769087e-02 -7.9254765e-04 
5.2737869e-02 4.8719265e-02 -3.6980683e-04 
5.2283570e-02 4.8307721e-02 -6.3684233e-04 
5.2327011e-02 4.8246048e-02 -1.9000538e-04 
5.2353349e-02 4.8431963e-02 -8.5222110e-04 
5.2428856e-02 4.8353780e-02 -1.9382540e-04 
5.2078888e-02 4.8035163e-02 -3.9188366e-04 
5.2887592e-02 4.9025949e-02 -9.9595636e-04 
5.2052397e-02 4.8107062e-02 -8.0974161e-04 
5.2128293e-02 4.8022170e-02 -1.2214217e-04 
5.1919799e-02 4.7927838e-02 -6.3919439e-04 
5.1963557e-02 4.7865614e-02 -1.8746470e-04 
5.2532982e-02 4.8578184e-02 -6.7710213e-04 
5.2510794e-02 4.8592120e-02 -8.3334383e-04 
5.2192669e-02 4.8250139e-02 -7.9620164e-04 
5.2239623e-02 4.8198134e-02 -3.7026772e-04 
5.1876467e-02 4.7830664e-02 -4.2258945e-04 
5.1713988e-02 4.7653358e-02 -3.9052972e-04 
5.1859770e-02 4.7916718e-02 -8.5841253e-04 
5.1940955e-02 4.7842499e-02 -1.8861009e-04 
5.1555570e-02 4.7546715e-02 -6.3827360e-04 
5.1599298e-02 4.7484942e-02 -1.8631315e-04 
5.1556744e-02 4.7589891e-02 -8.1578223e-04 
5.2308496e-02 4.8420254e-02 -1.0014322e-03 
5.1641297e-02 4.7512591e-02 -1.1801749e-04 
5.1351629e-02 4.7274824e-02 -3.8932863e-04 
5.1684264e-02 4.7719497e-02 -8.0203166e-04 
5.1745776e-02 4.7679201e-02 -3.5911921e-04 
5.1954266e-02 4.7973637e-02 -6.8203249e-04 
5.1932391e-02 4.7987781e-02 -8.3871506e-04 
5.1391929e-02 4.7324117e-02 -4.2134867e-04 
5.1194113e-02 4.7168888e-02 -6.3718006e-04 
5.1366881e-02 4.7402628e-02 -8.6480688e-04 
5.1237594e-02 4.7107115e-02 -1.8502044e-04 
5.1456928e-02 4.7335468e-02 -1.8186790e-04 
5.0992016e-02 4.6898920e-02 -3.8791361e-04 
5.1069845e-02 4.7082264e-02 -8.2152127e-04 
5.1162001e-02 4.7011666e-02 -1.1395586e-04 
5.1728964e-02 4.7814544e-02 -1.0067092e-03 
5.1194079e-02 4.7208771e-02 -8.0878340e-04 
5.1264975e-02 4.7174282e-02 -3.4740168e-04 
5.0834894e-02 4.6793580e-02 -6.3624472e-04 
5.0878357e-02 4.6732225e-02 -1.8378207e-04 
5.1319126e-02 4.7340903e-02 -8.1561989e-04 
5.1352371e-02 4.7325928e-02 -6.0356798e-04 
5.0882604e-02 4.6897989e-02 -8.7089703e-04 
5.0980397e-02 4.6836596e-02 -1.7523745e-04 
5.0793558e-02 4.6699118e-02 -4.1904725e-04 
5.0634734e-02 4.6526063e-02 -3.8662821e-04 
5.0690167e-02 4.6518762e-02 -1.0979328e-04 
5.0591022e-02 4.6583418e-02 -8.2688686e-04 
5.0478369e-02 4.6421222e-02 -6.3506770e-04 
5.0521612e-02 4.6360273e-02 -1.8255024e-04 
5.0791521e-02 4.6677567e-02 -3.3597476e-04 
5.0712261e-02 4.6707105e-02 -8.1553886e-04 
5.1150125e-02 4.7210403e-02 -1.0117786e-03 
5.0279699e-02 4.6155930e-02 -3.8539947e-04 
5.0511096e-02 4.6345878e-02 -1.6875277e-04 
5.0406359e-02 4.6402287e-02 -8.7666803e-04 
5.0776727e-02 4.6782341e-02 -8.4932975e-04 
5.0738819e-02 4.6689030e-02 -6.1902934e-04 
5.0124034e-02 4.6051599e-02 -6.3375960e-04 
5.0158255e-02 4.5982495e-02 -1.8560523e-04 
5.0225578e-02 4.6033606e-02 -1.0539070e-04 
5.0120227e-02 4.6093684e-02 -8.3217589e-04 
5.0034352e-02 4.5911092e-02 -4.3298095e-04 
4.9927089e-02 4.5788128e-02 -3.8394818e-04 
5.0324962e-02 4.6188757e-02 -3.2512983e-04 
5.0206207e-02 4.6176363e-02 -8.0473127e-04 
5.0048657e-02 4.5863084e-02 -1.6271454e-04 
4.9938105e-02 4.5915015e-02 -8.8207639e-04 
4.9772006e-02 4.5684375e-02 -6.3228066e-04 
5.0572421e-02 4.6608299e-02 -1.0167225e-03 
4.9814921e-02 4.5623906e-02 -1.7991205e-04 
4.9803458e-02 4.5664098e-02 -4.0473504e-04 
5.0210174e-02 4.6138026e-02 -6.2040455e-04 
4.9576763e-02 4.5423266e-02 -3.8261447e-04 
4.9767345e-02 4.5556355e-02 -1.0169012e-04 
4.9657077e-02 4.5611877e-02 -8.3675998e-04 
5.0199836e-02 4.6181541e-02 -8.5395615e-04 
4.9865447e-02 4.5707911e-02 -3.1426916e-04 
4.9772605e-02 4.5729794e-02 -8.2810258e-04 
4.9422309e-02 4.5320041e-02 -6.3096883e-04 
4.9465165e-02 4.5259874e-02 -1.7865414e-04 
4.9593195e-02 4.5387927e-02 -1.5648524e-04 
4.9477488e-02 4.5436054e-02 -8.8697503e-04 
4.9351893e-02 4.5181785e-02 -3.5031151e-04 
4.9228609e-02 4.5060970e-02 -3.8129959e-04 
4.9995147e-02 4.6007235e-02 -1.0214016e-03 
4.9316119e-02 4.5086320e-02 -9.7483469e-05 
4.9201272e-02 4.5138381e-02 -8.4116810e-04 
4.9673691e-02 4.5564782e-02 -5.5929163e-04 
4.9604505e-02 4.5550846e-02 -8.1109011e-04 
4.9074788e-02 4.4958223e-02 -6.2942930e-04 
4.9412705e-02 4.5234416e-02 -3.0385403e-04 
4.9094278e-02 4.4868801e-02 -1.5378688e-04 
4.9314313e-02 4.5253899e-02 -8.3422952e-04 
4.8882470e-02 4.4701066e-02 -3.8000985e-04 
4.9144208e-02 4.4919875e-02 -1.5034145e-04 
4.9024109e-02 4.4965319e-02 -8.9153618e-04 
4.8771929e-02 4.4539332e-02 -1.7615983e-04 
4.8721131e-02 4.4584889e-02 -6.0394907e-04 
4.8871346e-02 4.4623479e-02 -9.3488248e-05 
4.8752543e-02 4.4672616e-02 -8.4527861e-04 
4.9418464e-02 4.5407087e-02 -1.0253127e-03 
4.8680279e-02 4.4513490e-02 -4.7860263e-04 
4.8966452e-02 4.4768445e-02 -2.9377540e-04 
4.8862979e-02 4.4785675e-02 -8.4011041e-04 
4.8538569e-02 4.4343960e-02 -3.7879581e-04 
4.8701458e-02 4.4459324e-02 -1.4466287e-04 
4.9048018e-02 4.4983380e-02 -8.6234947e-04 
4.9068324e-02 4.4968594e-02 -7.0542603e-04 
4.8487943e-02 4.4238813e-02 -1.5013236e-04 
4.8577644e-02 4.4501908e-02 -8.9568028e-04 
4.8421104e-02 4.4285264e-02 -6.5697660e-04 
4.8893750e-02 4.4731081e-02 -4.6118721e-04 
4.8795998e-02 4.4708129e-02 -8.0620690e-04 
4.8432462e-02 4.4167690e-02 -8.9753834e-05 
4.8311207e-02 4.4214472e-02 -8.4847742e-04 
4.8197027e-02 4.3989319e-02 -3.7737348e-04 
4.8526399e-02 4.4309385e-02 -2.8387207e-04 
4.8419021e-02 4.4325504e-02 -8.4557058e-04 
4.8841763e-02 4.4807207e-02 -1.0289450e-03 
4.8114400e-02 4.3849308e-02 -1.3934799e-04 
4.8044939e-02 4.3895770e-02 -6.6042144e-04 
4.8265059e-02 4.4005256e-02 -1.3896497e-04 
4.8138395e-02 4.4046499e-02 -8.9970720e-04 
4.7857583e-02 4.3636944e-02 -3.7597044e-04 
4.8472736e-02 4.4386026e-02 -8.6582371e-04 
4.8492618e-02 4.4371214e-02 -7.0913520e-04 
4.7999918e-02 4.3718338e-02 -8.5649459e-05 
4.7876440e-02 4.3764099e-02 -8.5181225e-04 
4.8092328e-02 4.3857086e-02 -2.7433370e-04 
4.7680106e-02 4.3515738e-02 -6.5285451e-04 
4.7928009e-02 4.3819509e-02 -8.6201454e-04 
4.8106544e-02 4.3911621e-02 -4.4972816e-04 
4.7683228e-02 4.3402053e-02 -1.3695340e-04 
4.7834426e-02 4.3558016e-02 -1.3346643e-04 
4.7705885e-02 4.3598186e-02 -9.0319669e-04 
4.7519866e-02 4.3287031e-02 -3.7457264e-04 
4.8266195e-02 4.4209216e-02 -1.0319927e-03 
4.7487002e-02 4.3272398e-02 -4.6223580e-04 
4.7573119e-02 4.3275937e-02 -8.1718012e-05 
4.7826052e-02 4.3701600e-02 -8.0892851e-04 
4.7372863e-02 4.3185957e-02 -6.0159812e-04 
4.7448069e-02 4.3320268e-02 -8.5481198e-04 
4.7411241e-02 4.3128546e-02 -1.7117514e-04 
4.7664188e-02 4.3411542e-02 -2.6495612e-04 
4.7898374e-02 4.3790288e-02 -8.6867256e-04 
4.7917958e-02 4.3775443e-02 -7.1213272e-04 
4.7551081e-02 4.3426793e-02 -8.5569522e-04 
4.7302477e-02 4.3003511e-02 -1.1510554e-04 
4.7184296e-02 4.2939574e-02 -3.7325048e-04 
4.7409706e-02 4.3117408e-02 -1.2777527e-04 
4.7279596e-02 4.3156929e-02 -9.0639392e-04 
4.7125477e-02 4.2833790e-02 -1.7428622e-04 
4.7034614e-02 4.2839359e-02 -6.1791245e-04 
4.7151998e-02 4.2839441e-02 -7.7878685e-05 
4.7025956e-02 4.2883825e-02 -8.5731922e-04 
4.7691181e-02 4.3612916e-02 -1.0347844e-03 
4.7241557e-02 4.2972337e-02 -2.5585553e-04 
4.6850748e-02 4.2594317e-02 -3.7184465e-04 
4.7074743e-02 4.2936686e-02 -8.7075564e-04 
4.6862356e-02 4.2551275e-02 -1.2728972e-04 
4.7259804e-02 4.3037668e-02 -4.6439868e-04 
4.6990395e-02 4.2682841e-02 -1.2244430e-04 
4.6890683e-02 4.2637434e-02 -3.8169164e-04 
4.6727803e-02 4.2531922e-02 -6.6284102e-04 
4.7324646e-02 4.3196019e-02 -8.7146932e-04 
4.6859607e-02 4.2722475e-02 -9.0932817e-04 
4.7343917e-02 4.3181174e-02 -7.1515475e-04 
4.6736218e-02 4.2409513e-02 -7.4335621e-05 
4.6976157e-02 4.2820834e-02 -8.0940843e-04 