# vtk DataFile Version 4.0
vtk output
ASCII
DATASET UNSTRUCTURED_GRID
POINTS 4496 float
-4.3633327e-01 9.6409470e-01 4.4200001e+01 
-4.3633258e-01 9.6409065e-01 4.4074627e+01 
-3.2152572e-01 9.1279918e-01 4.4200001e+01 
-3.8534868e-01 8.4052670e-01 4.4200001e+01 
-3.9589554e-01 8.5545403e-01 4.4010014e+01 
-3.2616228e-01 9.1667932e-01 4.4011734e+01 
-4.3633190e-01 9.6408653e-01 4.3948376e+01 
-2.1293370e-01 8.4677851e-01 4.4200001e+01 
-2.9042658e-01 7.3813015e-01 4.4200001e+01 
-2.1010752e-01 8.4669363e-01 4.4073502e+01 
-2.8908840e-01 7.3604190e-01 4.4072292e+01 
-3.9589015e-01 8.5505831e-01 4.3883316e+01 
-3.2487559e-01 9.1697580e-01 4.3885036e+01 
-2.0722924e-01 8.4660655e-01 4.3944645e+01 
-1.1981077e-01 7.7773046e-01 4.4200001e+01 
-2.8772619e-01 7.3391593e-01 4.3942276e+01 
-4.3633121e-01 9.6408242e-01 4.3821228e+01 
-1.9739023e-01 6.6468561e-01 4.4200001e+01 
-2.9444304e-01 7.8727525e-01 4.3879974e+01 
-8.7554991e-02 7.5255024e-01 4.4042213e+01 
-1.6445170e-01 6.4084798e-01 4.4041008e+01 
-3.2357255e-01 9.1726828e-01 4.3757431e+01 
-3.9587301e-01 8.5463828e-01 4.3755711e+01 
-2.0429766e-01 8.4651643e-01 4.3813354e+01 
-2.8633916e-01 7.3175091e-01 4.3809875e+01 
-2.6899619e-02 6.8901783e-01 4.4200001e+01 
-1.0567340e-01 7.7152997e-01 4.3875790e+01 
-4.3633053e-01 9.6407831e-01 4.3693161e+01 
-8.7133333e-02 5.9509218e-01 4.4200001e+01 
-1.8777622e-01 6.5475601e-01 4.3873402e+01 
-2.0131156e-01 8.4642249e-01 4.3679543e+01 
-3.2225290e-01 9.1755641e-01 4.3628902e+01 
-3.9584404e-01 8.5419410e-01 4.3627178e+01 
-1.0114321e-03 6.6670936e-01 4.3939713e+01 
-2.8492665e-01 7.2954547e-01 4.3675007e+01 
-1.0131179e-01 7.7015632e-01 4.3743176e+01 
-6.0682178e-02 5.7631296e-01 4.3938457e+01 
3.9444737e-02 6.2338209e-01 4.4053139e+01 
-1.8470748e-01 6.5131217e-01 4.3739727e+01 
-7.0938184e-03 5.4737431e-01 4.4052326e+01 
-4.3632981e-01 9.6407413e-01 4.3564159e+01 
7.6947339e-02 5.8804804e-01 4.4200001e+01 
-1.2721874e-02 6.8194175e-01 4.3817982e+01 
-7.7214435e-02 5.8474159e-01 4.3819649e+01 
4.0195532e-02 5.2425718e-01 4.4200001e+01 
-1.9826968e-01 8.4632379e-01 4.3543118e+01 
-9.6842363e-02 7.6872379e-01 4.3607994e+01 
-3.2091641e-01 9.1783977e-01 4.3499420e+01 
-3.9580306e-01 8.5372573e-01 4.3497700e+01 
-2.8348783e-01 7.2729832e-01 4.3537586e+01 
-1.8155001e-01 6.4778340e-01 4.3603539e+01 
1.5678726e-01 5.2239102e-01 4.4060219e+01 
1.0298219e-02 6.6009766e-01 4.3674484e+01 
1.3250886e-01 4.7546524e-01 4.4058990e+01 
-4.3632913e-01 9.6407002e-01 4.3434200e+01 
-5.0139543e-02 5.6696451e-01 4.3671154e+01 
1.3504514e-01 5.4209155e-01 4.3856747e+01 
1.0361936e-01 4.8715758e-01 4.3855240e+01 
2.0846681e-01 4.8028421e-01 4.4200001e+01 
1.9279444e-01 4.4799727e-01 4.4200001e+01 
-9.2261828e-02 7.6722860e-01 4.3470158e+01 
-1.4701239e-03 6.7547697e-01 4.3552124e+01 
-1.9517080e-01 8.4621930e-01 4.3403992e+01 
-3.1956279e-01 9.1811794e-01 4.3368977e+01 
-3.9574999e-01 8.5323322e-01 4.3367252e+01 
-1.7830023e-01 6.4416617e-01 4.3464752e+01 
-6.7131944e-02 5.7555372e-01 4.3547829e+01 
-2.8202194e-01 7.2500783e-01 4.3397518e+01 
-4.3632844e-01 9.6406585e-01 4.3303261e+01 
1.5138821e-01 5.3037512e-01 4.3609200e+01 
1.2119007e-01 4.7490793e-01 4.3606068e+01 
-8.7566733e-02 7.6566672e-01 4.3329563e+01 
-1.7495437e-01 6.4045686e-01 4.3323273e+01 
-3.1819177e-01 9.1839045e-01 4.3237537e+01 
-3.9568463e-01 8.5271639e-01 4.3235813e+01 
2.2269404e-02 6.5294570e-01 4.3398811e+01 
-1.9201367e-01 8.4610778e-01 4.3262066e+01 
-3.8899176e-02 5.5709696e-01 4.3393635e+01 
-2.8052819e-01 7.2267252e-01 4.3254715e+01 
3.7877345e-01 3.8273901e-01 4.4200001e+01 
-4.3632776e-01 9.6406174e-01 4.3171322e+01 
3.9241230e-01 3.7329337e-01 4.3965439e+01 
1.0283732e-02 6.6872352e-01 4.3271511e+01 
-5.6385640e-02 5.6585240e-01 4.3265472e+01 
-8.2753494e-02 7.6403379e-01 4.3186119e+01 
-4.0345609e-01 8.6371827e-01 4.3104889e+01 
-3.1680310e-01 9.1865683e-01 4.3105087e+01 
-1.7150842e-01 6.3665158e-01 4.3179005e+01 
-1.8879703e-01 8.4598809e-01 4.3117241e+01 
-2.7900568e-01 7.2029078e-01 4.3109074e+01 
4.0610775e-01 3.6380205e-01 4.3729839e+01 
1.6776134e-01 5.1882964e-01 4.3331150e+01 
-4.3632707e-01 9.6405768e-01 4.3038357e+01 
1.4031014e-01 4.6124566e-01 4.3307755e+01 
3.4952711e-02 6.4519531e-01 4.3111935e+01 
-7.7818394e-02 7.6232505e-01 4.3039719e+01 
-3.1539652e-01 9.1891652e-01 4.2971603e+01 
-3.9551663e-01 8.5160977e-01 4.2969879e+01 
-2.6899155e-02 5.4666573e-01 4.3105160e+01 
-1.6795819e-01 6.3274628e-01 4.3031849e+01 
-1.8551964e-01 8.4585863e-01 4.2969406e+01 
4.1985780e-01 3.5425979e-01 4.3493168e+01 
-2.7745360e-01 7.1786088e-01 4.2960495e+01 
-4.3632638e-01 9.6405357e-01 4.2904346e+01 
2.2723136e-02 6.6139150e-01 4.2979332e+01 
-4.4916678e-02 5.5559248e-01 4.2971806e+01 
-3.1397179e-01 9.1916907e-01 4.2837063e+01 
-3.9541367e-01 8.5101974e-01 4.2835335e+01 
-7.2757579e-02 7.6053542e-01 4.2890255e+01 
-1.6429928e-01 6.2873662e-01 4.2881699e+01 
1.8463810e-01 5.0694346e-01 4.3035332e+01 
-1.8218029e-01 8.4571803e-01 4.2818455e+01 
1.5503895e-01 4.5003417e-01 4.3027725e+01 
-2.7587104e-01 7.1538109e-01 4.2808868e+01 
4.3366045e-01 3.4466109e-01 4.3255390e+01 
-4.3632573e-01 9.6404958e-01 4.2769268e+01 
-3.8429454e-01 8.3484912e-01 4.2710606e+01 
-3.1252861e-01 9.1941386e-01 4.2701439e+01 
4.8404284e-02 6.3678014e-01 4.2813030e+01 
-1.4070326e-02 5.3562075e-01 4.2804932e+01 
-6.7567028e-02 7.5865942e-01 4.2737610e+01 
-1.6052702e-01 6.2461799e-01 4.2728443e+01 
-1.7877772e-01 8.4556442e-01 4.2664265e+01 
-4.3632504e-01 9.6404558e-01 4.2633099e+01 
-2.7425703e-01 7.1284944e-01 4.2654083e+01 
4.4751364e-01 3.3500037e-01 4.3016472e+01 
3.5901129e-02 6.5341437e-01 4.2674721e+01 
-3.7959340e-01 8.2794034e-01 4.2568317e+01 
-3.1106678e-01 9.1965032e-01 4.2564713e+01 
-3.2659348e-02 5.4472327e-01 4.2665997e+01 
2.0396979e-01 4.9291667e-01 4.2740131e+01 
-6.2242586e-02 7.5669110e-01 4.2581669e+01 
1.7765003e-01 4.3475360e-01 4.2732578e+01 
-1.5663649e-01 6.2038553e-01 4.2571964e+01 
-4.3632439e-01 9.6404165e-01 4.2495808e+01 
-1.7531081e-01 8.4539592e-01 4.2506718e+01 
-2.7261066e-01 7.1026409e-01 4.2496017e+01 
-3.0958602e-01 9.1987789e-01 4.2426853e+01 
-3.7859210e-01 8.2613736e-01 4.2421188e+01 
4.6141517e-01 3.2527190e-01 4.2776375e+01 
6.2686495e-02 6.2762415e-01 4.2501175e+01 
-3.3570320e-04 5.2390522e-01 4.2492062e+01 
-5.6779940e-02 7.5462401e-01 4.2422298e+01 
-4.3632373e-01 9.6403772e-01 4.2357380e+01 
-1.5262254e-01 6.1603409e-01 4.2412144e+01 
-1.7177837e-01 8.4521037e-01 4.2345684e+01 
-2.7093092e-01 7.0762289e-01 4.2334549e+01 
-3.0808610e-01 9.2009580e-01 4.2287842e+01 
-3.8275370e-01 8.3137155e-01 4.2275047e+01 
4.9876589e-02 6.4471585e-01 4.2356720e+01 
-1.9539909e-02 5.3318781e-01 4.2347118e+01 
-4.3632311e-01 9.6403396e-01 4.2217781e+01 
2.1959943e-01 4.8236796e-01 4.2385345e+01 
-5.1174615e-02 7.5245124e-01 4.2259373e+01 
1.9034323e-01 4.2346162e-01 4.2378918e+01 
-1.4847966e-01 6.1155808e-01 4.2248856e+01 
4.7536272e-01 3.1546980e-01 4.2535065e+01 
-1.6817927e-01 8.4500539e-01 4.2181026e+01 
-2.6921678e-01 7.0492369e-01 4.2169544e+01 
-3.0656675e-01 9.2030340e-01 4.2147648e+01 
-3.9470181e-01 8.4769493e-01 4.2145920e+01 
7.7868804e-02 6.1763972e-01 4.2175373e+01 
-4.3632248e-01 9.6403021e-01 4.2076988e+01 
1.4390758e-02 5.1145434e-01 4.2165581e+01 
-4.5421973e-02 7.5016522e-01 4.2092751e+01 
-1.4420210e-01 6.0695171e-01 4.2081959e+01 
-3.0502778e-01 9.2049998e-01 4.2006248e+01 
-4.0175444e-01 8.5747409e-01 4.2004128e+01 
-1.6451253e-01 8.4477836e-01 4.2012604e+01 
4.8935395e-01 3.0558801e-01 4.2292507e+01 
-2.6746723e-01 7.0216429e-01 4.2000870e+01 
6.4714879e-02 6.3520777e-01 4.2024277e+01 
-4.3632188e-01 9.6402657e-01 4.1934975e+01 
-5.4755262e-03 5.2092212e-01 4.2014156e+01 
-2.3078828e-01 8.1064087e-01 4.1931458e+01 
2.3550548e-01 4.7116494e-01 4.2073269e+01 
2.0610523e-01 4.1123796e-01 4.2066772e+01 
-3.9517213e-02 7.4775779e-01 4.1922287e+01 
-1.3978374e-01 6.0220873e-01 4.1911320e+01 
-3.0346894e-01 9.2068475e-01 4.1863613e+01 
-3.9432141e-01 8.4618556e-01 4.1861881e+01 
-1.6077711e-01 8.4452641e-01 4.1840263e+01 
-2.6568118e-01 6.9934219e-01 4.1828377e+01 
-4.3632129e-01 9.6402299e-01 4.1791718e+01 
5.0338638e-01 2.9562023e-01 4.2048656e+01 
9.4028555e-02 6.0672593e-01 4.1834507e+01 
3.0205652e-02 4.9819478e-01 4.1824417e+01 
-3.8116732e-01 8.2744831e-01 4.1725647e+01 
-3.0189002e-01 9.2085695e-01 4.1719719e+01 
-3.3455357e-02 7.4522001e-01 4.1747829e+01 
-1.3521814e-01 5.9732240e-01 4.1736786e+01 
-4.3632072e-01 9.6401960e-01 4.1647179e+01 
-1.5697217e-01 8.4424627e-01 4.1663853e+01 
-2.6385748e-01 6.9645494e-01 4.1651920e+01 
8.0488607e-02 6.2478805e-01 4.1676235e+01 
2.6870471e-01 4.4547972e-01 4.1752304e+01 
9.6269641e-03 5.0785345e-01 4.1665993e+01 
2.4764967e-01 3.8646612e-01 4.1743168e+01 
-3.0029076e-01 9.2101562e-01 4.1574532e+01 
-3.9388368e-01 8.4456980e-01 4.1572796e+01 
5.1745731e-01 2.8556010e-01 4.1803486e+01 
-2.7231261e-02 7.4254233e-01 4.1569210e+01 
-1.3049847e-01 5.9228569e-01 4.1558201e+01 
-4.3632016e-01 9.6401632e-01 4.1501339e+01 
-1.5309690e-01 8.4393430e-01 4.1483204e+01 
-2.6199502e-01 6.9349992e-01 4.1471333e+01 
-2.9867104e-01 9.2115986e-01 4.1428024e+01 
-3.9364263e-01 8.4372103e-01 4.1426289e+01 
1.1125199e-01 5.9476525e-01 4.1477348e+01 
4.7217656e-02 4.8404291e-01 4.1467384e+01 
-4.3631962e-01 9.6401310e-01 4.1354160e+01 
-2.0839609e-02 7.3971421e-01 4.1386261e+01 
-1.2561750e-01 5.8709091e-01 4.1375404e+01 
5.3156406e-01 2.7540097e-01 4.1556946e+01 
-1.4915068e-01 8.4358656e-01 4.1298138e+01 
-2.9703063e-01 9.2128879e-01 4.1280167e+01 
-3.9338648e-01 8.4284443e-01 4.1278431e+01 
-2.6009262e-01 6.9047421e-01 4.1286449e+01 
2.9365057e-01 4.2687622e-01 4.1391586e+01 
9.7278498e-02 6.1333776e-01 4.1311302e+01 
2.7470219e-01 3.6807936e-01 4.1382729e+01 
2.5872495e-02 4.9389899e-01 4.1301384e+01 
-4.3631911e-01 9.6401012e-01 4.1205620e+01 
-1.4274905e-02 7.3672432e-01 4.1198803e+01 
-1.2056758e-01 5.8173001e-01 4.1188221e+01 
-2.9536936e-01 9.2140132e-01 4.1130928e+01 
[...]
POINT_DATA 4496
FIELD FieldData 5
DISPLACEMENT 3 4496  float
1.1386372e-04 1.4051174e-04 -2.5755905e-06 
1.1304548e-04 1.3932264e-04 -2.5754834e-06 
1.1548309e-04 1.4413650e-04 -2.8388051e-06 
1.1776491e-04 1.4212144e-04 -1.7364580e-06 
1.1605323e-04 1.3998673e-04 -1.8093368e-06 
1.1413165e-04 1.4220421e-04 -2.8451657e-06 
1.1222232e-04 1.3812662e-04 -2.5752709e-06 
1.1756783e-04 1.4756605e-04 -2.9221842e-06 
1.2099850e-04 1.4511890e-04 -1.3847847e-06 
1.1674404e-04 1.4645468e-04 -2.9397575e-06 
1.2022987e-04 1.4394915e-04 -1.3736319e-06 
1.1523921e-04 1.3878662e-04 -1.8055566e-06 
1.1329622e-04 1.4104394e-04 -2.8563791e-06 
1.1590550e-04 1.4532210e-04 -2.9574244e-06 
1.1974845e-04 1.5050748e-04 -2.8760887e-06 
1.1944712e-04 1.4275921e-04 -1.3627626e-06 
1.1139442e-04 1.3692351e-04 -2.5749616e-06 
1.2331840e-04 1.4805765e-04 -1.2956522e-06 
1.1735626e-04 1.4195642e-04 -1.8251701e-06 
1.1951211e-04 1.5002777e-04 -2.8480708e-06 
1.2303112e-04 1.4758777e-04 -1.2846293e-06 
1.1245674e-04 1.3987691e-04 -2.8662844e-06 
1.1442062e-04 1.3758014e-04 -1.8023297e-06 
1.1505200e-04 1.4416897e-04 -2.9753098e-06 
1.1865023e-04 1.4154808e-04 -1.3516715e-06 
1.2255067e-04 1.5344343e-04 -2.6419962e-06 
1.1782566e-04 1.4787415e-04 -2.9091218e-06 
1.1056395e-04 1.3571365e-04 -2.5742074e-06 
1.2551776e-04 1.5154117e-04 -1.3550284e-06 
1.2149491e-04 1.4526019e-04 -1.2645506e-06 
1.1418388e-04 1.4299473e-04 -2.9930632e-06 
1.1161321e-04 1.3870304e-04 -2.8768927e-06 
1.1359888e-04 1.3636815e-04 -1.7998113e-06 
1.2155218e-04 1.5178588e-04 -2.5997310e-06 
1.1783857e-04 1.4031594e-04 -1.3408956e-06 
1.1700342e-04 1.4675202e-04 -2.9239811e-06 
1.2439751e-04 1.4989007e-04 -1.3493136e-06 
1.2366276e-04 1.5414359e-04 -2.4529811e-06 
1.2072807e-04 1.4408887e-04 -1.2525629e-06 
1.2605854e-04 1.5266593e-04 -1.4245157e-06 
1.0972821e-04 1.3449960e-04 -2.5738050e-06 
1.2574151e-04 1.5672727e-04 -2.3625187e-06 
1.2027474e-04 1.5025769e-04 -2.6676867e-06 
1.2335235e-04 1.4823879e-04 -1.3214568e-06 
1.2775786e-04 1.5556601e-04 -1.5140245e-06 
1.1330008e-04 1.4179824e-04 -3.0107237e-06 
1.1616715e-04 1.4560930e-04 -2.9385965e-06 
1.1076592e-04 1.3752391e-04 -2.8866143e-06 
1.1277312e-04 1.3514973e-04 -1.7956529e-06 
1.1701357e-04 1.3906273e-04 -1.3302298e-06 
1.1994833e-04 1.4289744e-04 -1.2403345e-06 
1.2689999e-04 1.5791961e-04 -2.2612912e-06 
1.2002461e-04 1.4961787e-04 -2.6108521e-06 
1.2837462e-04 1.5714069e-04 -1.6540675e-06 
1.0888989e-04 1.3327716e-04 -2.5726729e-06 
1.2293861e-04 1.4768093e-04 -1.3299791e-06 
1.2494191e-04 1.5529114e-04 -2.3066809e-06 
1.2666571e-04 1.5428495e-04 -1.5756378e-06 
1.2914930e-04 1.6088801e-04 -2.1991348e-06 
1.3017001e-04 1.6039264e-04 -1.7873417e-06 
1.1531712e-04 1.4444564e-04 -2.9535281e-06 
1.1874057e-04 1.4808324e-04 -2.6788582e-06 
1.1240155e-04 1.4058099e-04 -3.0286392e-06 
1.0991405e-04 1.3633777e-04 -2.8971551e-06 
1.1194411e-04 1.3392609e-04 -1.7929148e-06 
1.1915505e-04 1.4168650e-04 -1.2290553e-06 
1.2185883e-04 1.4597434e-04 -1.3019646e-06 
1.1617295e-04 1.3778759e-04 -1.3201458e-06 
1.0804698e-04 1.3205035e-04 -2.5723421e-06 
1.2368544e-04 1.5344184e-04 -2.3022976e-06 
1.2541191e-04 1.5246093e-04 -1.5736998e-06 
1.1445313e-04 1.4326180e-04 -2.9671844e-06 
1.1834749e-04 1.4045440e-04 -1.2171317e-06 
1.0906001e-04 1.3514758e-04 -2.9064922e-06 
1.1111277e-04 1.3269730e-04 -1.7905925e-06 
1.1844852e-04 1.4737256e-04 -2.6197449e-06 
1.1148777e-04 1.3934074e-04 -3.0458289e-06 
1.2142932e-04 1.4539892e-04 -1.3111505e-06 
1.1531793e-04 1.3649071e-04 -1.3101730e-06 
1.3223416e-04 1.6627427e-04 -2.3863424e-06 
1.0720074e-04 1.3081705e-04 -2.5723809e-06 
1.3098754e-04 1.6445828e-04 -2.3855234e-06 
1.1712324e-04 1.4578702e-04 -2.6892924e-06 
1.2031450e-04 1.4363517e-04 -1.2824160e-06 
1.1357572e-04 1.4205625e-04 -2.9810374e-06 
1.0992312e-04 1.3122922e-04 -1.8462792e-06 
1.0819986e-04 1.3394892e-04 -2.9170747e-06 
1.1752783e-04 1.3920324e-04 -1.2061813e-06 
1.1055930e-04 1.3807988e-04 -3.0628951e-06 
1.1445050e-04 1.3517358e-04 -1.2993429e-06 
1.2973118e-04 1.6262890e-04 -2.3841367e-06 
1.2222223e-04 1.5130195e-04 -2.2990807e-06 
1.0635040e-04 1.2958015e-04 -2.5725831e-06 
1.2387728e-04 1.5021653e-04 -1.5691733e-06 
1.1682362e-04 1.4504720e-04 -2.6264547e-06 
1.1268460e-04 1.4083012e-04 -2.9937564e-06 
1.0734112e-04 1.3274778e-04 -2.9253558e-06 
1.0943803e-04 1.3022152e-04 -1.7848911e-06 
1.1986875e-04 1.4304272e-04 -1.2927405e-06 
1.1669290e-04 1.3793047e-04 -1.1945283e-06 
1.0961555e-04 1.3679510e-04 -3.0790939e-06 
1.2846568e-04 1.6078012e-04 -2.3820867e-06 
1.1356625e-04 1.3383305e-04 -1.2902468e-06 
1.0550137e-04 1.2833555e-04 -2.5711790e-06 
1.1545691e-04 1.4340937e-04 -2.6971991e-06 
1.1871873e-04 1.4122087e-04 -1.2640295e-06 
1.0647807e-04 1.3154080e-04 -2.9359212e-06 
1.0859908e-04 1.2897835e-04 -1.7836206e-06 
1.1177985e-04 1.3958177e-04 -3.0064848e-06 
1.1584647e-04 1.3663902e-04 -1.1847559e-06 
1.2065657e-04 1.4900908e-04 -2.2953018e-06 
1.0865618e-04 1.3548684e-04 -3.0946492e-06 
1.2238824e-04 1.4801025e-04 -1.5593895e-06 
1.1267038e-04 1.3247378e-04 -1.2825744e-06 
1.2719391e-04 1.5892282e-04 -2.3826180e-06 
1.0464637e-04 1.2709179e-04 -2.5705426e-06 
1.0831087e-04 1.2817587e-04 -1.7053125e-06 
1.0561434e-04 1.3033286e-04 -2.9430014e-06 
1.1515110e-04 1.4264234e-04 -2.6305697e-06 
1.1825745e-04 1.4061398e-04 -1.2764300e-06 
1.1086022e-04 1.3831341e-04 -3.0183405e-06 
1.1498464e-04 1.3532676e-04 -1.1736400e-06 
1.0768454e-04 1.3416068e-04 -3.1095326e-06 
1.0379201e-04 1.2584285e-04 -2.5689783e-06 
1.1175849e-04 1.3108822e-04 -1.2740815e-06 
1.2591404e-04 1.5705056e-04 -2.3794494e-06 
1.1374278e-04 1.4095214e-04 -2.7023621e-06 
1.0762834e-04 1.2701619e-04 -1.6720094e-06 
1.0474976e-04 1.2911927e-04 -2.9479363e-06 
1.1707208e-04 1.3873380e-04 -1.2476297e-06 
1.1916702e-04 1.4680534e-04 -2.2864390e-06 
1.0993137e-04 1.3702425e-04 -3.0309709e-06 
1.2092999e-04 1.4591361e-04 -1.5633649e-06 
1.1411223e-04 1.3399558e-04 -1.1680315e-06 
1.0293863e-04 1.2458934e-04 -2.5650795e-06 
1.0669655e-04 1.3281162e-04 -3.1257910e-06 
1.1083279e-04 1.2968619e-04 -1.2673307e-06 
1.0388164e-04 1.2790399e-04 -2.9562209e-06 
1.0676095e-04 1.2570868e-04 -1.6666089e-06 
1.2463599e-04 1.5517937e-04 -2.3742843e-06 
1.1343412e-04 1.4015957e-04 -2.6302478e-06 
1.1659841e-04 1.3811474e-04 -1.2608697e-06 
1.0898867e-04 1.3571560e-04 -3.0386407e-06 
1.0208193e-04 1.2333799e-04 -2.5638981e-06 
1.1322548e-04 1.3264461e-04 -1.1596900e-06 
1.0569621e-04 1.3144127e-04 -3.1387679e-06 
1.0989435e-04 1.2826409e-04 -1.2610169e-06 
1.0301642e-04 1.2668870e-04 -2.9625971e-06 
1.0568906e-04 1.2426010e-04 -1.6940103e-06 
1.1198563e-04 1.3841498e-04 -2.7024792e-06 
1.1538219e-04 1.3617708e-04 -1.2318988e-06 
1.0122744e-04 1.2208721e-04 -2.5621957e-06 
1.1719904e-04 1.4394270e-04 -2.2848128e-06 
1.0803509e-04 1.3438841e-04 -3.0454680e-06 
1.1898299e-04 1.4297609e-04 -1.5441373e-06 
1.1232790e-04 1.3127840e-04 -1.1528348e-06 
1.2335388e-04 1.5329832e-04 -2.3671873e-06 
1.0468307e-04 1.3005063e-04 -3.1511618e-06 
1.0894208e-04 1.2682189e-04 -1.2556013e-06 
1.0215470e-04 1.2547601e-04 -2.9671646e-06 
1.0439075e-04 1.2273625e-04 -1.7728714e-06 
1.1167977e-04 1.3760680e-04 -2.6260188e-06 
1.0037362e-04 1.2083352e-04 -2.5614679e-06 
1.1489868e-04 1.3555387e-04 -1.2510640e-06 
1.0707131e-04 1.3304310e-04 -3.0516560e-06 
1.1142340e-04 1.2989472e-04 -1.1448567e-06 
1.0128573e-04 1.2425483e-04 -2.9764178e-06 
1.0321778e-04 1.2125423e-04 -1.8226681e-06 
1.0365752e-04 1.2864043e-04 -3.1625946e-06 
1.2207426e-04 1.5141339e-04 -2.3598284e-06 
1.0798393e-04 1.2536549e-04 -1.2485964e-06 
1.1019481e-04 1.3581431e-04 -2.6979437e-06 
9.9511533e-05 1.1957608e-04 -2.5620193e-06 
1.1365330e-04 1.3356219e-04 -1.2214659e-06 
1.0421696e-04 1.2587426e-04 -2.4457256e-06 
1.1555490e-04 1.4152612e-04 -2.2779859e-06 
1.1736008e-04 1.4056060e-04 -1.5373766e-06 
1.0609887e-04 1.3168315e-04 -3.0579927e-06 
1.1050783e-04 1.2849724e-04 -1.1374763e-06 
1.0041572e-04 1.2303100e-04 -2.9820112e-06 
1.0269670e-04 1.2022024e-04 -1.7718618e-06 
1.0261958e-04 1.2721597e-04 -3.1749687e-06 
1.0701535e-04 1.2388543e-04 -1.2430370e-06 
9.8653618e-05 1.1831527e-04 -2.5592374e-06 
1.2080510e-04 1.4954108e-04 -2.3529294e-06 
1.0989442e-04 1.3499112e-04 -2.6180139e-06 
1.1316347e-04 1.3293822e-04 -1.2434986e-06 
1.0245646e-04 1.1942896e-04 -1.6849244e-06 
9.9554134e-05 1.2181345e-04 -2.9841526e-06 
1.0511432e-04 1.3030069e-04 -3.0633839e-06 
1.0958067e-04 1.2707879e-04 -1.1297433e-06 
9.7801574e-05 1.1705477e-04 -2.5541667e-06 
1.0157152e-04 1.2576669e-04 -3.1863617e-06 
1.0602885e-04 1.2238593e-04 -1.2405307e-06 
1.0837185e-04 1.3314954e-04 -2.6884184e-06 
1.1432690e-04 1.3959498e-04 -2.2450361e-06 
1.1188512e-04 1.3088892e-04 -1.2142472e-06 
1.1607584e-04 1.3886606e-04 -1.5766916e-06 
9.8689939e-05 1.2059374e-04 -2.9902251e-06 
1.0102225e-04 1.1771465e-04 -1.7671828e-06 
1.1955646e-04 1.4769424e-04 -2.3432897e-06 
1.0412175e-04 1.2890020e-04 -3.0677932e-06 
1.0864652e-04 1.2564802e-04 -1.1281046e-06 
9.6951066e-05 1.1580318e-04 -2.5516254e-06 
1.0051127e-04 1.2429971e-04 -3.1930294e-06 
1.0503423e-04 1.2087312e-04 -1.2409942e-06 
9.7833770e-05 1.1937807e-04 -2.9923663e-06 
1.0018706e-04 1.1646915e-04 -1.7702109e-06 
1.0808124e-04 1.3231210e-04 -2.6030043e-06 
1.1139668e-04 1.3027253e-04 -1.2355082e-06 
9.6099931e-05 1.1455781e-04 -2.5512763e-06 
1.0312125e-04 1.2748613e-04 -3.0677481e-06 
1.0770334e-04 1.2420198e-04 -1.1222724e-06 
1.1831164e-04 1.4584427e-04 -2.3281007e-06 
9.9442390e-05 1.2281898e-04 -3.1976501e-06 
9.6978110e-05 1.1816969e-04 -2.9937542e-06 
9.9352474e-05 1.1522232e-04 -1.7671514e-06 
1.0403318e-04 1.1934279e-04 -1.2353576e-06 
1.1267079e-04 1.3709688e-04 -2.2228448e-06 
1.0652540e-04 1.3042000e-04 -2.6752937e-06 
1.1440378e-04 1.3644253e-04 -1.5827884e-06 
1.1009456e-04 1.2816784e-04 -1.2054858e-06 
9.5256983e-05 1.1330363e-04 -2.5486609e-06 
1.0211737e-04 1.2605773e-04 -3.0704211e-06 
1.0674929e-04 1.2274091e-04 -1.1178722e-06 
9.6125579e-05 1.1695372e-04 -2.9987280e-06 
9.8526987e-05 1.1397785e-04 -1.7697334e-06 
9.8367549e-05 1.2131719e-04 -3.2074788e-06 
1.0302175e-04 1.1780054e-04 -1.2360069e-06 
1.1708333e-04 1.4401131e-04 -2.3149603e-06 
9.4411975e-05 1.1206181e-04 -2.5479114e-06 
1.0625107e-04 1.2957749e-04 -2.5844076e-06 
1.0960142e-04 1.2755385e-04 -1.2333994e-06 
9.5276482e-05 1.1574688e-04 -3.0032008e-06 
9.7700293e-05 1.1273708e-04 -1.7685696e-06 
1.0110267e-04 1.2460674e-04 -3.0684350e-06 
1.0579437e-04 1.2127027e-04 -1.1170652e-06 
9.3577481e-05 1.1081518e-04 -2.5448292e-06 
9.7285207e-05 1.1980205e-04 -3.2079199e-06 
1.0199940e-04 1.1623924e-04 -1.2336398e-06 
1.1100395e-04 1.3455786e-04 -2.1997187e-06 
1.1271544e-04 1.3398373e-04 -1.5869304e-06 
1.0532976e-04 1.2818698e-04 -2.5667557e-06 
1.1588115e-04 1.4220568e-04 -2.3011353e-06 
9.4437637e-05 1.1454121e-04 -3.0023955e-06 
9.6883559e-05 1.1150538e-04 -1.7751638e-06 
1.0869345e-04 1.2618559e-04 -1.2291124e-06 
1.0009007e-04 1.2315031e-04 -3.0643698e-06 
1.0482930e-04 1.1978368e-04 -1.1166693e-06 
9.2742426e-05 1.0958582e-04 -2.5437892e-06 
9.6190495e-05 1.1826775e-04 -3.2112257e-06 
1.0098184e-04 1.1466873e-04 -1.2360524e-06 
9.3602284e-05 1.1335302e-04 -3.0002734e-06 
9.6067692e-05 1.1027774e-04 -1.7735208e-06 
1.0441106e-04 1.2678835e-04 -2.5527679e-06 
9.8872522e-05 1.1507104e-04 -1.8920268e-06 
1.0778906e-04 1.2481032e-04 -1.2333769e-06 
9.1916918e-05 1.0835123e-04 -2.5383497e-06 
1.1468201e-04 1.4039010e-04 -2.2832903e-06 
1.0922061e-04 1.3195389e-04 -2.1973879e-06 
9.9073091e-05 1.2168035e-04 -3.0511571e-06 
1.1093506e-04 1.3109366e-04 -1.5400752e-06 
1.0386667e-04 1.1829954e-04 -1.1165295e-06 
9.2768918e-05 1.1215543e-04 -2.9939013e-06 
9.5257463e-05 1.0905444e-04 -1.7749469e-06 
9.5109979e-05 1.1673625e-04 -3.2025084e-06 
9.9951387e-05 1.1309531e-04 -1.2470286e-06 
9.1096197e-05 1.0713525e-04 -2.5376030e-06 
1.0349637e-04 1.2538735e-04 -2.5416898e-06 
1.0688195e-04 1.2343012e-04 -1.2324824e-06 
9.8060584e-05 1.2020668e-04 -3.0456793e-06 
9.1952024e-05 1.1097454e-04 -2.9917126e-06 
9.4462703e-05 1.0784505e-04 -1.7769116e-06 
1.0289813e-04 1.1680471e-04 -1.1131186e-06 
1.1349816e-04 1.3861171e-04 -2.2733020e-06 
9.4014948e-05 1.1518832e-04 -3.2054709e-06 
9.0286150e-05 1.0592354e-04 -2.5340939e-06 
1.1057389e-04 1.3109241e-04 -1.6543238e-06 
1.0943234e-04 1.3190618e-04 -2.1301728e-06 
9.8922392e-05 1.1151066e-04 -1.2451295e-06 
1.0258379e-04 1.2398232e-04 -2.5218101e-06 
1.0597201e-04 1.2204304e-04 -1.2371029e-06 
9.1137896e-05 1.0979924e-04 -2.9916357e-06 
9.3669427e-05 1.0664215e-04 -1.7792460e-06 
9.7045122e-05 1.1871976e-04 -3.0385245e-06 
1.0193481e-04 1.1530329e-04 -1.1148852e-06 
8.9477442e-05 1.0471632e-04 -2.5298409e-06 
1.1234590e-04 1.3684784e-04 -2.2475883e-06 
9.2914030e-05 1.1362509e-04 -3.2071280e-06 
9.7891272e-05 1.0991317e-04 -1.2450715e-06 
9.0322988e-05 1.0862779e-04 -2.9909900e-06 
9.2872739e-05 1.0544062e-04 -1.7821774e-06 
1.0944756e-04 1.2936755e-04 -1.6461743e-06 
1.0831029e-04 1.3019105e-04 -2.1149310e-06 
1.0161973e-04 1.2251129e-04 -2.5014003e-06 
1.0499843e-04 1.2054510e-04 -1.2382151e-06 
9.4464864e-05 1.1003057e-04 -2.1620738e-06 
8.8680135e-05 1.0351647e-04 -2.5241641e-06 
9.5967975e-05 1.1717140e-04 -3.0330032e-06 
1.0089259e-04 1.1368478e-04 -1.1236332e-06 
8.9504116e-05 1.0740312e-04 -2.9778769e-06 
9.2049377e-05 1.0423247e-04 -1.7973069e-06 
9.1842216e-05 1.1208449e-04 -3.1922134e-06 
1.1122457e-04 1.3512206e-04 -2.2202860e-06 
9.6881442e-05 1.0835960e-04 -1.2565797e-06 
8.7902408e-05 1.0236178e-04 -2.5246225e-06 
1.0041650e-04 1.2081421e-04 -2.5077838e-06 
1.0388424e-04 1.1876120e-04 -1.2269111e-06 
1.0836794e-04 1.2771090e-04 -1.6342298e-06 
1.0723768e-04 1.2853667e-04 -2.0930991e-06 
9.3350260e-05 1.0839311e-04 -2.1686867e-06 
8.8715824e-05 1.0622285e-04 -2.9622565e-06 
9.4826064e-05 1.1556383e-04 -3.0287908e-06 
9.1247159e-05 1.0305148e-04 -1.8058128e-06 
9.9848017e-05 1.1205814e-04 -1.1283435e-06 
8.7155728e-05 1.0122298e-04 -2.5168629e-06 
9.0825277e-05 1.1061175e-04 -3.1813861e-06 
9.5916388e-05 1.0687263e-04 -1.2670035e-06 
1.1013286e-04 1.3342593e-04 -2.1942465e-06 
9.9188044e-05 1.1913662e-04 -2.5289751e-06 
1.0280951e-04 1.1703117e-04 -1.2199808e-06 
8.7937027e-05 1.0505740e-04 -2.9579273e-06 
9.0464615e-05 1.0190181e-04 -1.8169649e-06 
1.0460170e-04 1.2489250e-04 -2.1332633e-06 
1.0630333e-04 1.2397219e-04 -1.5147389e-06 
9.3737981e-05 1.1402534e-04 -3.0272640e-06 
9.8844816e-05 1.1048393e-04 -1.1299177e-06 
9.2068156e-05 1.0647102e-04 -2.1646711e-06 
8.6423948e-05 1.0012099e-04 -2.5159145e-06 
9.4992865e-05 1.0543307e-04 -1.2707192e-06 
8.9842390e-05 1.0918367e-04 -3.1696434e-06 
8.7191176e-05 1.0392331e-04 -2.9495293e-06 
8.9704045e-05 1.0078295e-04 -1.8267565e-06 
1.0177203e-04 1.1535985e-04 -1.2091999e-06 
9.8009295e-05 1.1752115e-04 -2.5501479e-06 
1.0907775e-04 1.3178868e-04 -2.1759884e-06 
8.5702653e-05 9.9040801e-05 -2.5162472e-06 
9.7877113e-05 1.0896944e-04 -1.1304504e-06 
9.2688882e-05 1.1254563e-04 -3.0275107e-06 
1.0520405e-04 1.2537577e-04 -2.0685311e-06 
1.0535312e-04 1.2257427e-04 -1.5349844e-06 
8.6453707e-05 1.0281143e-04 -2.9370431e-06 
8.8790744e-05 9.9547520e-05 -1.8505951e-06 
9.4112445e-05 1.0403978e-04 -1.2650257e-06 
8.8902612e-05 1.0782710e-04 -3.1690699e-06 
8.9783454e-05 1.0358644e-04 -2.2527781e-06 
8.5003747e-05 9.7968317e-05 -2.5067584e-06 
1.0076506e-04 1.1374500e-04 -1.2095568e-06 
9.8549412e-05 1.1741517e-04 -2.3918935e-06 
9.6942080e-05 1.0751287e-04 -1.1448288e-06 
9.1689530e-05 1.1111268e-04 -3.0258650e-06 
8.5734231e-05 1.0171559e-04 -2.9229254e-06 
1.0807801e-04 1.3022113e-04 -2.1591263e-06 
8.8227476e-05 9.8592158e-05 -1.8395478e-06 
9.1387788e-05 1.0465650e-04 -2.0383570e-06 
1.0442657e-04 1.2111243e-04 -1.5181821e-06 
8.4322361e-05 9.6934709e-05 -2.5038373e-06 
9.3244496e-05 1.0270732e-04 -1.2855725e-06 
8.8001034e-05 1.0649775e-04 -3.1526658e-06 
1.0423304e-04 1.2384918e-04 -2.0459534e-06 
9.9800469e-05 1.1219201e-04 -1.1965917e-06 
9.5796000e-05 1.1445874e-04 -2.5630145e-06 
8.5037405e-05 1.0065430e-04 -2.9184689e-06 
8.7524983e-05 9.7543343e-05 -1.8492213e-06 
9.6050884e-05 1.0611020e-04 -1.1452508e-06 
9.0731941e-05 1.0973112e-04 -3.0163878e-06 
8.9140864e-05 1.0125560e-04 -2.0411080e-06 
8.3657898e-05 9.5923773e-05 -2.5029842e-06 
1.0710359e-04 1.2868668e-04 -2.1480096e-06 
9.2426133e-05 1.0141346e-04 -1.2843419e-06 
8.7133987e-05 1.0522547e-04 -3.1429361e-06 
1.0280804e-04 1.1815292e-04 -1.4338121e-06 
1.0046070e-04 1.1884608e-04 -2.1463782e-06 
8.4357300e-05 9.9613106e-05 -2.9097855e-06 
9.8876750e-05 1.1069126e-04 -1.1881880e-06 
8.7669432e-05 9.7053235e-05 -1.7401961e-06 
9.4762283e-05 1.1302456e-04 -2.5757208e-06 
8.3003491e-05 9.4928262e-05 -2.5024160e-06 
9.5190670e-05 1.0474917e-04 -1.1446789e-06 
8.9809102e-05 1.0840794e-04 -3.0078393e-06 
8.6158398e-05 9.5506912e-05 -1.8663744e-06 
8.3503372e-05 9.8096534e-05 -2.8701565e-06 
9.1640810e-05 1.0016790e-04 -1.2909118e-06 
8.6299995e-05 1.0399427e-04 -3.1359480e-06 
1.0616350e-04 1.2717450e-04 -2.1265093e-06 
8.7312132e-05 1.0038302e-04 -2.3361747e-06 
9.7989134e-05 1.0924946e-04 -1.1842073e-06 
9.3757466e-05 1.1162849e-04 -2.5864122e-06 
8.2367376e-05 9.3968229e-05 -2.5042409e-06 
9.4356226e-05 1.0344959e-04 -1.1551393e-06 
1.0239809e-04 1.2090363e-04 -2.0168234e-06 
1.0349143e-04 1.2008518e-04 -1.5999979e-06 
8.6534958e-05 9.5327807e-05 -1.7575151e-06 
8.8918787e-05 1.0711363e-04 -2.9963508e-06 
8.3337953e-05 9.8308148e-05 -2.9313085e-06 
1.0033744e-04 1.1365944e-04 -1.3196218e-06 
9.7626034e-05 1.1508387e-04 -2.2177483e-06 
9.0870424e-05 9.8969220e-05 -1.3041883e-06 
8.5519299e-05 1.0280419e-04 -3.1097723e-06 
8.1755956e-05 9.3027673e-05 -2.4986768e-06 
9.7129283e-05 1.0785322e-04 -1.1759367e-06 
9.2804403e-05 1.1029673e-04 -2.5925590e-06 
1.0521914e-04 1.2564613e-04 -2.1000628e-06 
8.6241518e-05 9.4582756e-05 -1.7139810e-06 
8.2684484e-05 9.7346099e-05 -2.9247792e-06 
9.3561292e-05 1.0217896e-04 -1.1600766e-06 
8.8076318e-05 1.0587902e-04 -2.9943642e-06 
8.1161859e-05 9.2099115e-05 -2.4951705e-06 
1.0150938e-04 1.1946561e-04 -1.9958650e-06 
1.0259032e-04 1.1865356e-04 -1.5915281e-06 
9.0140376e-05 9.7797623e-05 -1.3010950e-06 
8.4763051e-05 1.0167044e-04 -3.1017653e-06 
9.6298711e-05 1.0649739e-04 -1.1731544e-06 
8.1982704e-05 9.6206291e-05 -2.9114497e-06 
9.1102127e-05 1.0829442e-04 -2.6737073e-06 
9.8954595e-05 1.1138401e-04 -1.3038684e-06 
8.5464788e-05 9.3389557e-05 -1.7257084e-06 
9.2787013e-05 1.0095536e-04 -1.1688082e-06 
8.7271786e-05 1.0467851e-04 -2.9855150e-06 
8.0570222e-05 9.1194357e-05 -2.4914236e-06 
1.0432651e-04 1.2417226e-04 -2.0676182e-06 
8.5008563e-05 9.6766300e-05 -2.3166428e-06 
8.9433750e-05 9.6680466e-05 -1.3028841e-06 
9.6369637e-05 1.1290026e-04 -2.1667099e-06 
8.1096070e-05 9.4397867e-05 -2.8335064e-06 
8.4032254e-05 1.0055142e-04 -3.0907609e-06 
8.3631348e-05 9.1720067e-05 -1.8951043e-06 
9.5497395e-05 1.0519286e-04 -1.1679938e-06 
1.0066374e-04 1.1807300e-04 -1.9654619e-06 
1.0173686e-04 1.1726668e-04 -1.5677393e-06 
9.1002039e-05 1.0774361e-04 -2.6088630e-06 
8.5824642e-05 9.3182687e-05 -1.6220607e-06 
7.9997728e-05 9.0314614e-05 -2.4895539e-06 
9.2046874e-05 9.9778146e-05 -1.1679256e-06 
8.6489250e-05 1.0351887e-04 -2.9763105e-06 
8.3001651e-05 9.0880691e-05 -1.9165479e-06 
8.0634796e-05 9.3825773e-05 -2.8452521e-06 
8.8753761e-05 9.5584459e-05 -1.3073724e-06 
8.3328974e-05 9.9488352e-05 -3.0732449e-06 
1.0346131e-04 1.2275099e-04 -2.0425564e-06 
9.4718955e-05 1.0392643e-04 -1.1652074e-06 
7.9443940e-05 8.9448084e-05 -2.4861895e-06 
8.9406785e-05 1.0585744e-04 -2.6775092e-06 
8.4255116e-05 9.1366339e-05 -1.7109629e-06 
9.7862052e-05 1.0967781e-04 -1.3083436e-06 
9.1323695e-05 9.8629032e-05 -1.1723829e-06 
8.7188608e-05 9.7486831e-05 -1.9337781e-06 
8.0442493e-05 9.3904600e-05 -2.8959494e-06 
9.9852215e-05 1.1672480e-04 -1.9545980e-06 
8.5741529e-05 1.0239471e-04 -2.9709843e-06 
1.0091723e-04 1.1592561e-04 -1.5635587e-06 
8.8090324e-05 9.4539988e-05 -1.3228192e-06 
9.4529554e-05 1.1022194e-04 -2.1768017e-06 