# vtk DataFile Version 4.0
vtk output
ASCII
DATASET UNSTRUCTURED_GRID
POINTS 4496 float
-4.3633327e-01 9.6409470e-01 4.4200001e+01 
-4.3633258e-01 9.6409065e-01 4.4074627e+01 
-3.2152572e-01 9.1279918e-01 4.4200001e+01 
-3.8534868e-01 8.4052670e-01 4.4200001e+01 
-3.9589554e-01 8.5545403e-01 4.4010014e+01 
-3.2616228e-01 9.1667932e-01 4.4011734e+01 
-4.3633190e-01 9.6408653e-01 4.3948376e+01 
-2.1293370e-01 8.4677851e-01 4.4200001e+01 
-2.9042658e-01 7.3813015e-01 4.4200001e+01 
-2.1010752e-01 8.4669363e-01 4.4073502e+01 
-2.8908840e-01 7.3604190e-01 4.4072292e+01 
-3.9589015e-01 8.5505831e-01 4.3883316e+01 
-3.2487559e-01 9.1697580e-01 4.3885036e+01 
-2.0722924e-01 8.4660655e-01 4.3944645e+01 
-1.1981077e-01 7.7773046e-01 4.4200001e+01 
-2.8772619e-01 7.3391593e-01 4.3942276e+01 
-4.3633121e-01 9.6408242e-01 4.3821228e+01 
-1.9739023e-01 6.6468561e-01 4.4200001e+01 
-2.9444304e-01 7.8727525e-01 4.3879974e+01 
-8.7554991e-02 7.5255024e-01 4.4042213e+01 
-1.6445170e-01 6.4084798e-01 4.4041008e+01 
-3.2357255e-01 9.1726828e-01 4.3757431e+01 
-3.9587301e-01 8.5463828e-01 4.3755711e+01 
-2.0429766e-01 8.4651643e-01 4.3813354e+01 
-2.8633916e-01 7.3175091e-01 4.3809875e+01 
-2.6899619e-02 6.8901783e-01 4.4200001e+01 
-1.0567340e-01 7.7152997e-01 4.3875790e+01 
-4.3633053e-01 9.6407831e-01 4.3693161e+01 
-8.7133333e-02 5.9509218e-01 4.4200001e+01 
-1.8777622e-01 6.5475601e-01 4.3873402e+01 
-2.0131156e-01 8.4642249e-01 4.3679543e+01 
-3.2225290e-01 9.1755641e-01 4.3628902e+01 
-3.9584404e-01 8.5419410e-01 4.3627178e+01 
-1.0114321e-03 6.6670936e-01 4.3939713e+01 
-2.8492665e-01 7.2954547e-01 4.3675007e+01 
-1.0131179e-01 7.7015632e-01 4.3743176e+01 
-6.0682178e-02 5.7631296e-01 4.3938457e+01 
3.9444737e-02 6.2338209e-01 4.4053139e+01 
-1.8470748e-01 6.5131217e-01 4.3739727e+01 
-7.0938184e-03 5.4737431e-01 4.4052326e+01 
-4.3632981e-01 9.6407413e-01 4.3564159e+01 
7.6947339e-02 5.8804804e-01 4.4200001e+01 
-1.2721874e-02 6.8194175e-01 4.3817982e+01 
-7.7214435e-02 5.8474159e-01 4.3819649e+01 
4.0195532e-02 5.2425718e-01 4.4200001e+01 
-1.9826968e-01 8.4632379e-01 4.3543118e+01 
-9.6842363e-02 7.6872379e-01 4.3607994e+01 
-3.2091641e-01 9.1783977e-01 4.3499420e+01 
-3.9580306e-01 8.5372573e-01 4.3497700e+01 
-2.8348783e-01 7.2729832e-01 4.3537586e+01 
-1.8155001e-01 6.4778340e-01 4.3603539e+01 
1.5678726e-01 5.2239102e-01 4.4060219e+01 
1.0298219e-02 6.6009766e-01 4.3674484e+01 
1.3250886e-01 4.7546524e-01 4.4058990e+01 
-4.3632913e-01 9.6407002e-01 4.3434200e+01 
-5.0139543e-02 5.6696451e-01 4.3671154e+01 
1.3504514e-01 5.4209155e-01 4.3856747e+01 
1.0361936e-01 4.8715758e-01 4.3855240e+01 
2.0846681e-01 4.8028421e-01 4.4200001e+01 
1.9279444e-01 4.4799727e-01 4.4200001e+01 
-9.2261828e-02 7.6722860e-01 4.3470158e+01 
-1.4701239e-03 6.7547697e-01 4.3552124e+01 
-1.9517080e-01 8.4621930e-01 4.3403992e+01 
-3.1956279e-01 9.1811794e-01 4.3368977e+01 
-3.9574999e-01 8.5323322e-01 4.3367252e+01 
-1.7830023e-01 6.4416617e-01 4.3464752e+01 
-6.7131944e-02 5.7555372e-01 4.3547829e+01 
-2.8202194e-01 7.2500783e-01 4.3397518e+01 
-4.3632844e-01 9.6406585e-01 4.3303261e+01 
1.5138821e-01 5.3037512e-01 4.3609200e+01 
1.2119007e-01 4.7490793e-01 4.3606068e+01 
-8.7566733e-02 7.6566672e-01 4.3329563e+01 
-1.7495437e-01 6.4045686e-01 4.3323273e+01 
-3.1819177e-01 9.1839045e-01 4.3237537e+01 
-3.9568463e-01 8.5271639e-01 4.3235813e+01 
2.2269404e-02 6.5294570e-01 4.3398811e+01 
-1.9201367e-01 8.4610778e-01 4.3262066e+01 
-3.8899176e-02 5.5709696e-01 4.3393635e+01 
-2.8052819e-01 7.2267252e-01 4.3254715e+01 
3.7877345e-01 3.8273901e-01 4.4200001e+01 
-4.3632776e-01 9.6406174e-01 4.3171322e+01 
3.9241230e-01 3.7329337e-01 4.3965439e+01 
1.0283732e-02 6.6872352e-01 4.3271511e+01 
-5.6385640e-02 5.6585240e-01 4.3265472e+01 
-8.2753494e-02 7.6403379e-01 4.3186119e+01 
-4.0345609e-01 8.6371827e-01 4.3104889e+01 
-3.1680310e-01 9.1865683e-01 4.3105087e+01 
-1.7150842e-01 6.3665158e-01 4.3179005e+01 
-1.8879703e-01 8.4598809e-01 4.3117241e+01 
-2.7900568e-01 7.2029078e-01 4.3109074e+01 
4.0610775e-01 3.6380205e-01 4.3729839e+01 
1.6776134e-01 5.1882964e-01 4.3331150e+01 
-4.3632707e-01 9.6405768e-01 4.3038357e+01 
1.4031014e-01 4.6124566e-01 4.3307755e+01 
3.4952711e-02 6.4519531e-01 4.3111935e+01 
-7.7818394e-02 7.6232505e-01 4.3039719e+01 
-3.1539652e-01 9.1891652e-01 4.2971603e+01 
-3.9551663e-01 8.5160977e-01 4.2969879e+01 
-2.6899155e-02 5.4666573e-01 4.3105160e+01 
-1.6795819e-01 6.3274628e-01 4.3031849e+01 
-1.8551964e-01 8.4585863e-01 4.2969406e+01 
4.1985780e-01 3.5425979e-01 4.3493168e+01 
-2.7745360e-01 7.1786088e-01 4.2960495e+01 
-4.3632638e-01 9.6405357e-01 4.2904346e+01 
2.2723136e-02 6.6139150e-01 4.2979332e+01 
-4.4916678e-02 5.5559248e-01 4.2971806e+01 
-3.1397179e-01 9.1916907e-01 4.2837063e+01 
-3.9541367e-01 8.5101974e-01 4.2835335e+01 
-7.2757579e-02 7.6053542e-01 4.2890255e+01 
-1.6429928e-01 6.2873662e-01 4.2881699e+01 
1.8463810e-01 5.0694346e-01 4.3035332e+01 
-1.8218029e-01 8.4571803e-01 4.2818455e+01 
1.5503895e-01 4.5003417e-01 4.3027725e+01 
-2.7587104e-01 7.1538109e-01 4.2808868e+01 
4.3366045e-01 3.4466109e-01 4.3255390e+01 
-4.3632573e-01 9.6404958e-01 4.2769268e+01 
-3.8429454e-01 8.3484912e-01 4.2710606e+01 
-3.1252861e-01 9.1941386e-01 4.2701439e+01 
4.8404284e-02 6.3678014e-01 4.2813030e+01 
-1.4070326e-02 5.3562075e-01 4.2804932e+01 
-6.7567028e-02 7.5865942e-01 4.2737610e+01 
-1.6052702e-01 6.2461799e-01 4.2728443e+01 
-1.7877772e-01 8.4556442e-01 4.2664265e+01 
-4.3632504e-01 9.6404558e-01 4.2633099e+01 
-2.7425703e-01 7.1284944e-01 4.2654083e+01 
4.4751364e-01 3.3500037e-01 4.3016472e+01 
3.5901129e-02 6.5341437e-01 4.2674721e+01 
-3.7959340e-01 8.2794034e-01 4.2568317e+01 
-3.1106678e-01 9.1965032e-01 4.2564713e+01 
-3.2659348e-02 5.4472327e-01 4.2665997e+01 
2.0396979e-01 4.9291667e-01 4.2740131e+01 
-6.2242586e-02 7.5669110e-01 4.2581669e+01 
1.7765003e-01 4.3475360e-01 4.2732578e+01 
-1.5663649e-01 6.2038553e-01 4.2571964e+01 
-4.3632439e-01 9.6404165e-01 4.2495808e+01 
-1.7531081e-01 8.4539592e-01 4.2506718e+01 
-2.7261066e-01 7.1026409e-01 4.2496017e+01 
-3.0958602e-01 9.1987789e-01 4.2426853e+01 
-3.7859210e-01 8.2613736e-01 4.2421188e+01 
4.6141517e-01 3.2527190e-01 4.2776375e+01 
6.2686495e-02 6.2762415e-01 4.2501175e+01 
-3.3570320e-04 5.2390522e-01 4.2492062e+01 
-5.6779940e-02 7.5462401e-01 4.2422298e+01 
-4.3632373e-01 9.6403772e-01 4.2357380e+01 
-1.5262254e-01 6.1603409e-01 4.2412144e+01 
-1.7177837e-01 8.4521037e-01 4.2345684e+01 
-2.7093092e-01 7.0762289e-01 4.2334549e+01 
-3.0808610e-01 9.2009580e-01 4.2287842e+01 
-3.8275370e-01 8.3137155e-01 4.2275047e+01 
4.9876589e-02 6.4471585e-01 4.2356720e+01 
-1.9539909e-02 5.3318781e-01 4.2347118e+01 
-4.3632311e-01 9.6403396e-01 4.2217781e+01 
2.1959943e-01 4.8236796e-01 4.2385345e+01 
-5.1174615e-02 7.5245124e-01 4.2259373e+01 
1.9034323e-01 4.2346162e-01 4.2378918e+01 
-1.4847966e-01 6.1155808e-01 4.2248856e+01 
4.7536272e-01 3.1546980e-01 4.2535065e+01 
-1.6817927e-01 8.4500539e-01 4.2181026e+01 
-2.6921678e-01 7.0492369e-01 4.2169544e+01 
-3.0656675e-01 9.2030340e-01 4.2147648e+01 
-3.9470181e-01 8.4769493e-01 4.2145920e+01 
7.7868804e-02 6.1763972e-01 4.2175373e+01 
-4.3632248e-01 9.6403021e-01 4.2076988e+01 
1.4390758e-02 5.1145434e-01 4.2165581e+01 
-4.5421973e-02 7.5016522e-01 4.2092751e+01 
-1.4420210e-01 6.0695171e-01 4.2081959e+01 
-3.0502778e-01 9.2049998e-01 4.2006248e+01 
-4.0175444e-01 8.5747409e-01 4.2004128e+01 
-1.6451253e-01 8.4477836e-01 4.2012604e+01 
4.8935395e-01 3.0558801e-01 4.2292507e+01 
-2.6746723e-01 7.0216429e-01 4.2000870e+01 
6.4714879e-02 6.3520777e-01 4.2024277e+01 
-4.3632188e-01 9.6402657e-01 4.1934975e+01 
-5.4755262e-03 5.2092212e-01 4.2014156e+01 
-2.3078828e-01 8.1064087e-01 4.1931458e+01 
2.3550548e-01 4.7116494e-01 4.2073269e+01 
2.0610523e-01 4.1123796e-01 4.2066772e+01 
-3.9517213e-02 7.4775779e-01 4.1922287e+01 
-1.3978374e-01 6.0220873e-01 4.1911320e+01 
-3.0346894e-01 9.2068475e-01 4.1863613e+01 
-3.9432141e-01 8.4618556e-01 4.1861881e+01 
-1.6077711e-01 8.4452641e-01 4.1840263e+01 
-2.6568118e-01 6.9934219e-01 4.1828377e+01 
-4.3632129e-01 9.6402299e-01 4.1791718e+01 
5.0338638e-01 2.9562023e-01 4.2048656e+01 
9.4028555e-02 6.0672593e-01 4.1834507e+01 
3.0205652e-02 4.9819478e-01 4.1824417e+01 
-3.8116732e-01 8.2744831e-01 4.1725647e+01 
-3.0189002e-01 9.2085695e-01 4.1719719e+01 
-3.3455357e-02 7.4522001e-01 4.1747829e+01 
-1.3521814e-01 5.9732240e-01 4.1736786e+01 
-4.3632072e-01 9.6401960e-01 4.1647179e+01 
-1.5697217e-01 8.4424627e-01 4.1663853e+01 
-2.6385748e-01 6.9645494e-01 4.1651920e+01 
8.0488607e-02 6.2478805e-01 4.1676235e+01 
2.6870471e-01 4.4547972e-01 4.1752304e+01 
9.6269641e-03 5.0785345e-01 4.1665993e+01 
2.4764967e-01 3.8646612e-01 4.1743168e+01 
-3.0029076e-01 9.2101562e-01 4.1574532e+01 
-3.9388368e-01 8.4456980e-01 4.1572796e+01 
5.1745731e-01 2.8556010e-01 4.1803486e+01 
-2.7231261e-02 7.4254233e-01 4.1569210e+01 
-1.3049847e-01 5.9228569e-01 4.1558201e+01 
-4.3632016e-01 9.6401632e-01 4.1501339e+01 
-1.5309690e-01 8.4393430e-01 4.1483204e+01 
-2.6199502e-01 6.9349992e-01 4.1471333e+01 
-2.9867104e-01 9.2115986e-01 4.1428024e+01 
-3.9364263e-01 8.4372103e-01 4.1426289e+01 
1.1125199e-01 5.9476525e-01 4.1477348e+01 
4.7217656e-02 4.8404291e-01 4.1467384e+01 
-4.3631962e-01 9.6401310e-01 4.1354160e+01 
-2.0839609e-02 7.3971421e-01 4.1386261e+01 
-1.2561750e-01 5.8709091e-01 4.1375404e+01 
5.3156406e-01 2.7540097e-01 4.1556946e+01 
-1.4915068e-01 8.4358656e-01 4.1298138e+01 
-2.9703063e-01 9.2128879e-01 4.1280167e+01 
-3.9338648e-01 8.4284443e-01 4.1278431e+01 
-2.6009262e-01 6.9047421e-01 4.1286449e+01 
2.9365057e-01 4.2687622e-01 4.1391586e+01 
9.7278498e-02 6.1333776e-01 4.1311302e+01 
2.7470219e-01 3.6807936e-01 4.1382729e+01 
2.5872495e-02 4.9389899e-01 4.1301384e+01 
-4.3631911e-01 9.6401012e-01 4.1205620e+01 
-1.4274905e-02 7.3672432e-01 4.1198803e+01 
-1.2056758e-01 5.8173001e-01 4.1188221e+01 
-2.9536936e-01 9.2140132e-01 4.1130928e+01 
[...]
POINT_DATA 4496
FIELD FieldData 5
DISPLACEMENT 3 4496  float
1.6023225e-01 1.4735804e-01 -1.2397903e-03 
1.5939027e-01 1.4650142e-01 -1.2340109e-03 
1.6027279e-01 1.4745064e-01 -1.6612530e-03 
1.6033509e-01 1.4740156e-01 -7.3885749e-04 
1.5904687e-01 1.4609469e-01 -7.6116435e-04 
1.5900528e-01 1.4616048e-01 -1.6479326e-03 
1.5854244e-01 1.4563882e-01 -1.2281876e-03 
1.6032588e-01 1.4753866e-01 -1.9404237e-03 
1.6041914e-01 1.4747955e-01 -6.7778141e-04 
1.5947634e-01 1.4667657e-01 -1.9530316e-03 
1.5956318e-01 1.4660805e-01 -6.6665525e-04 
1.5819636e-01 1.4522907e-01 -7.5268146e-04 
1.5815417e-01 1.4529584e-01 -1.6527857e-03 
1.5861100e-01 1.4579840e-01 -1.9658566e-03 
1.6038190e-01 1.4761446e-01 -2.0949603e-03 
1.5869178e-01 1.4572084e-01 -6.5534469e-04 
1.5768860e-01 1.4477015e-01 -1.2223154e-03 
1.6047888e-01 1.4755537e-01 -8.0169633e-04 
1.5822862e-01 1.4528856e-01 -9.7163353e-04 
1.5934268e-01 1.4656259e-01 -2.1326172e-03 
1.5943037e-01 1.4649576e-01 -8.5304928e-04 
1.5729703e-01 1.4442508e-01 -1.6576308e-03 
1.5733980e-01 1.4435732e-01 -7.4409298e-04 
1.5772931e-01 1.4490366e-01 -1.9788980e-03 
1.5780438e-01 1.4481738e-01 -6.4382661e-04 
1.6045450e-01 1.4769059e-01 -2.1138168e-03 
1.5820944e-01 1.4541051e-01 -2.1327494e-03 
1.5682873e-01 1.4389528e-01 -1.2163788e-03 
1.6053499e-01 1.4764485e-01 -1.0676318e-03 
1.5829353e-01 1.4533162e-01 -7.8355224e-04 
1.5683077e-01 1.4399178e-01 -1.9921425e-03 
1.5643375e-01 1.4354804e-01 -1.6625233e-03 
1.5647711e-01 1.4347935e-01 -7.3540315e-04 
1.5872455e-01 1.4593306e-01 -2.1235757e-03 
1.5690047e-01 1.4389713e-01 -6.3211727e-04 
1.5731992e-01 1.4450786e-01 -2.1465707e-03 
1.5879357e-01 1.4587915e-01 -1.1052021e-03 
1.5952189e-01 1.4674142e-01 -2.1049054e-03 
1.5739855e-01 1.4442080e-01 -7.7456469e-04 
1.5958153e-01 1.4670062e-01 -1.2730344e-03 
1.5596262e-01 1.4301416e-01 -1.2104084e-03 
1.6053721e-01 1.4777578e-01 -2.1224788e-03 
1.5789443e-01 1.4509152e-01 -2.1432659e-03 
1.5798886e-01 1.4505394e-01 -1.0461875e-03 
1.6059181e-01 1.4774802e-01 -1.4398360e-03 
1.5591475e-01 1.4306216e-01 -2.0055852e-03 
1.5641324e-01 1.4358778e-01 -2.1605776e-03 
1.5556419e-01 1.4266467e-01 -1.6674175e-03 
1.5560813e-01 1.4259499e-01 -7.2654377e-04 
1.5597951e-01 1.4295956e-01 -6.2019471e-04 
1.5648682e-01 1.4349292e-01 -7.6548220e-04 
1.5965185e-01 1.4688571e-01 -2.2044508e-03 
1.5694854e-01 1.4412974e-01 -2.1422703e-03 
1.5968367e-01 1.4685908e-01 -1.7207261e-03 
1.5509018e-01 1.4212658e-01 -1.2043507e-03 
1.5700582e-01 1.4406118e-01 -1.1000140e-03 
1.5826906e-01 1.4547731e-01 -2.1834876e-03 
1.5830588e-01 1.4544331e-01 -1.5970080e-03 
1.6062507e-01 1.4788327e-01 -2.2707474e-03 
1.6065265e-01 1.4787154e-01 -1.9448767e-03 
1.5548885e-01 1.4264970e-01 -2.1747767e-03 
1.5611419e-01 1.4328395e-01 -2.1625061e-03 
1.5498070e-01 1.4211427e-01 -2.0192333e-03 
1.5468819e-01 1.4177480e-01 -1.6723499e-03 
1.5473278e-01 1.4170420e-01 -7.1760267e-04 
1.5555775e-01 1.4254746e-01 -7.5635500e-04 
1.5617070e-01 1.4320485e-01 -1.0388566e-03 
1.5504088e-01 1.4200406e-01 -6.0807873e-04 
1.5421127e-01 1.4123251e-01 -1.1982647e-03 
1.5661579e-01 1.4379866e-01 -2.2019795e-03 
1.5664202e-01 1.4375463e-01 -1.6200499e-03 
1.5454611e-01 1.4169303e-01 -2.1891100e-03 
1.5461072e-01 1.4158380e-01 -7.4711384e-04 
1.5380572e-01 1.4087839e-01 -1.6772631e-03 
1.5385093e-01 1.4080684e-01 -7.0853613e-04 
1.5510300e-01 1.4225574e-01 -2.1611794e-03 
1.5402798e-01 1.4114740e-01 -2.0330483e-03 
1.5514995e-01 1.4217417e-01 -1.0955742e-03 
1.5408400e-01 1.4103006e-01 -5.9574982e-04 
1.6070344e-01 1.4802139e-01 -2.7494903e-03 
1.5332577e-01 1.4033175e-01 -1.1921489e-03 
1.5913540e-01 1.4642909e-01 -2.7658925e-03 
1.5423532e-01 1.4137621e-01 -2.1824082e-03 
1.5428235e-01 1.4128463e-01 -1.0320704e-03 
1.5358442e-01 1.4071710e-01 -2.2036044e-03 
1.5296312e-01 1.3990664e-01 -7.2546897e-04 
1.5291651e-01 1.3997516e-01 -1.6822517e-03 
1.5364522e-01 1.4060137e-01 -7.3783618e-04 
1.5305595e-01 1.4016104e-01 -2.0470272e-03 
1.5310831e-01 1.4003697e-01 -5.8314390e-04 
1.5756030e-01 1.4482960e-01 -2.7823013e-03 
1.5475760e-01 1.4191176e-01 -2.2204414e-03 
1.5243353e-01 1.3942425e-01 -1.1859912e-03 
1.5464929e-01 1.4173155e-01 -1.6416953e-03 
1.5318306e-01 1.4030620e-01 -2.1802166e-03 
1.5260310e-01 1.3972132e-01 -2.2182099e-03 
1.5202066e-01 1.3906521e-01 -1.6871566e-03 
1.5206708e-01 1.3899176e-01 -6.9005322e-04 
1.5322126e-01 1.4021342e-01 -1.0919820e-03 
1.5266044e-01 1.3959949e-01 -7.2843174e-04 
1.5206395e-01 1.3915437e-01 -2.0611575e-03 
1.5597798e-01 1.4322256e-01 -2.7986572e-03 
1.5211305e-01 1.3902405e-01 -5.7038671e-04 
1.5153459e-01 1.3850981e-01 -1.1796904e-03 
1.5227975e-01 1.3939062e-01 -2.2023509e-03 
1.5231891e-01 1.3928844e-01 -1.0259479e-03 
1.5111788e-01 1.3814826e-01 -1.6921397e-03 
1.5116499e-01 1.3807397e-01 -6.8069366e-04 
1.5160148e-01 1.3870493e-01 -2.2329369e-03 
1.5165594e-01 1.3857758e-01 -7.1903586e-04 
1.5278067e-01 1.3990420e-01 -2.2391193e-03 
1.5105124e-01 1.3812673e-01 -2.0754139e-03 
1.5277772e-01 1.3983029e-01 -1.6514426e-03 
1.5109770e-01 1.3799085e-01 -5.5741833e-04 
1.5438837e-01 1.4160821e-01 -2.8150466e-03 
1.5062858e-01 1.3758856e-01 -1.1733872e-03 
1.5034156e-01 1.3723247e-01 -6.3946837e-04 
1.5020815e-01 1.3722444e-01 -1.6970123e-03 
1.5118352e-01 1.3827598e-01 -2.1992517e-03 
1.5121469e-01 1.3817400e-01 -1.0894154e-03 
1.5057880e-01 1.3766733e-01 -2.2477591e-03 
1.5063080e-01 1.3753493e-01 -7.0947903e-04 
1.5001726e-01 1.3707767e-01 -2.0898031e-03 
1.4971562e-01 1.3666019e-01 -1.1669713e-03 
1.5006135e-01 1.3693632e-01 -5.4415193e-04 
1.5279126e-01 1.3998623e-01 -2.8312074e-03 
1.5024203e-01 1.3732186e-01 -2.2222025e-03 
1.4939310e-01 1.3626628e-01 -6.1747013e-04 
1.4929131e-01 1.3629338e-01 -1.7017998e-03 
1.5027514e-01 1.3721119e-01 -1.0206060e-03 
1.5081015e-01 1.3790369e-01 -2.2597185e-03 
1.4953449e-01 1.3660772e-01 -2.2627183e-03 
1.5080827e-01 1.3783288e-01 -1.6858268e-03 
1.4958450e-01 1.3647085e-01 -7.0006371e-04 
1.4879550e-01 1.3572457e-01 -1.1603723e-03 
1.4896101e-01 1.3600612e-01 -2.1043946e-03 
1.4900342e-01 1.3586017e-01 -5.3072278e-04 
1.4836709e-01 1.3535509e-01 -1.7066792e-03 
1.4840834e-01 1.3526468e-01 -6.0537702e-04 
1.5118690e-01 1.3835719e-01 -2.8471653e-03 
1.4909871e-01 1.3615948e-01 -2.2180928e-03 
1.4912476e-01 1.3605051e-01 -1.0879337e-03 
1.4846762e-01 1.3552541e-01 -2.2775657e-03 
1.4786799e-01 1.3478181e-01 -1.1538251e-03 
1.4851615e-01 1.3538460e-01 -6.9043861e-04 
1.4788188e-01 1.3491148e-01 -2.1189845e-03 
1.4792311e-01 1.3476148e-01 -5.1704206e-04 
1.4743564e-01 1.3440955e-01 -1.7114682e-03 
1.4742494e-01 1.3426629e-01 -6.0663634e-04 
1.4811631e-01 1.3516402e-01 -2.2416934e-03 
1.4814553e-01 1.3504733e-01 -1.0161150e-03 
1.4693312e-01 1.3383178e-01 -1.1471992e-03 
1.4843808e-01 1.3549508e-01 -2.2764732e-03 
1.4737745e-01 1.3441963e-01 -2.2924230e-03 
1.4844415e-01 1.3542989e-01 -1.6783940e-03 
1.4742507e-01 1.3427559e-01 -6.8081362e-04 
1.4957459e-01 1.3672011e-01 -2.8628071e-03 
1.4677899e-01 1.3379292e-01 -2.1336507e-03 
1.4681959e-01 1.3363948e-01 -5.0313206e-04 
1.4649679e-01 1.3345671e-01 -1.7161596e-03 
1.4654702e-01 1.3337809e-01 -6.3180213e-04 
1.4692260e-01 1.3395084e-01 -2.2366280e-03 
1.4599074e-01 1.3287416e-01 -1.1405719e-03 
1.4694561e-01 1.3383734e-01 -1.0878828e-03 
1.4626315e-01 1.3328959e-01 -2.3072830e-03 
1.4631060e-01 1.3314289e-01 -6.7101850e-04 
1.4555004e-01 1.3249594e-01 -1.7210846e-03 
1.4558983e-01 1.3240807e-01 -6.4479315e-04 
1.4565146e-01 1.3264963e-01 -2.1483384e-03 
1.4795469e-01 1.3507548e-01 -2.8782049e-03 
1.4569230e-01 1.3249357e-01 -4.8883737e-04 
1.4589640e-01 1.3291140e-01 -2.2607066e-03 
1.4504035e-01 1.3190876e-01 -1.1339756e-03 
1.4592385e-01 1.3279112e-01 -1.0127513e-03 
1.4513798e-01 1.3204747e-01 -1.4684058e-03 
1.4635479e-01 1.3338068e-01 -2.2925595e-03 
1.4636098e-01 1.3331515e-01 -1.6872925e-03 
1.4512387e-01 1.3213453e-01 -2.3221390e-03 
1.4517167e-01 1.3198584e-01 -6.6116120e-04 
1.4459549e-01 1.3152750e-01 -1.7258642e-03 
1.4464693e-01 1.3144717e-01 -6.1162509e-04 
1.4449842e-01 1.3148087e-01 -2.1631850e-03 
1.4454013e-01 1.3132240e-01 -4.7423303e-04 
1.4408213e-01 1.3093543e-01 -1.1271258e-03 
1.4632736e-01 1.3342392e-01 -2.8933454e-03 
1.4464846e-01 1.3164365e-01 -2.2546651e-03 
1.4467081e-01 1.3152835e-01 -1.0892622e-03 
1.4375080e-01 1.3053238e-01 -5.6624360e-04 
1.4363316e-01 1.3055131e-01 -1.7304043e-03 
1.4395848e-01 1.3095310e-01 -2.3369524e-03 
1.4400733e-01 1.3080317e-01 -6.5116870e-04 
1.4311601e-01 1.2995416e-01 -1.1200450e-03 
1.4331892e-01 1.3028531e-01 -2.1779987e-03 
1.4336199e-01 1.3012545e-01 -4.5957632e-04 
1.4357512e-01 1.3055693e-01 -2.2790064e-03 
1.4422531e-01 1.3122235e-01 -2.3256768e-03 
1.4360307e-01 1.3043575e-01 -1.0105338e-03 
1.4421260e-01 1.3114543e-01 -1.7833064e-03 
1.4266255e-01 1.2956707e-01 -1.7350034e-03 
1.4271545e-01 1.2948504e-01 -5.9066107e-04 
1.4469291e-01 1.3176604e-01 -2.9080668e-03 
1.4276619e-01 1.2974469e-01 -2.3516018e-03 
1.4281689e-01 1.2959439e-01 -6.4144371e-04 
1.4214182e-01 1.2896527e-01 -1.1129949e-03 
1.4211188e-01 1.2906234e-01 -2.1926148e-03 
1.4215717e-01 1.2890190e-01 -4.4473223e-04 
1.4168403e-01 1.2857491e-01 -1.7393982e-03 
1.4173749e-01 1.2849234e-01 -5.8020442e-04 
1.4226879e-01 1.2923053e-01 -2.2717668e-03 
1.4229326e-01 1.2911664e-01 -1.0921527e-03 
1.4115928e-01 1.2796849e-01 -1.1060741e-03 
1.4154595e-01 1.2850846e-01 -2.3659542e-03 
1.4159919e-01 1.2835844e-01 -6.3135225e-04 
1.4305006e-01 1.3009968e-01 -2.9220474e-03 
1.4087643e-01 1.2781101e-01 -2.2071749e-03 
1.4069708e-01 1.2757486e-01 -1.7438723e-03 
1.4075094e-01 1.2749127e-01 -5.6940201e-04 
1.4092466e-01 1.2765062e-01 -4.2912510e-04 
1.4182678e-01 1.2879121e-01 -2.3498600e-03 
1.4114480e-01 1.2809302e-01 -2.2962391e-03 
1.4181544e-01 1.2871812e-01 -1.8240773e-03 
1.4117651e-01 1.2797453e-01 -1.0095442e-03 
1.4016838e-01 1.2696296e-01 -1.0989446e-03 
1.4029689e-01 1.2724316e-01 -2.3803364e-03 
1.4035307e-01 1.2709430e-01 -6.2123244e-04 
1.3970149e-01 1.2656584e-01 -1.7483461e-03 
1.3975631e-01 1.2648171e-01 -5.5867346e-04 
1.3961136e-01 1.2652992e-01 -2.2217629e-03 
1.3966340e-01 1.2637070e-01 -4.1359078e-04 
1.4139959e-01 1.2842646e-01 -2.9356598e-03 
1.3916874e-01 1.2594920e-01 -1.0918734e-03 
1.3977574e-01 1.2670378e-01 -2.2879399e-03 
1.3980487e-01 1.2659431e-01 -1.0969129e-03 
1.3869733e-01 1.2554879e-01 -1.7527591e-03 
1.3875258e-01 1.2546365e-01 -5.4771442e-04 
1.3901736e-01 1.2594759e-01 -2.3941593e-03 
1.3907795e-01 1.2580104e-01 -6.1126973e-04 
1.3816050e-01 1.2492679e-01 -1.0844487e-03 
1.3831569e-01 1.2521827e-01 -2.2359784e-03 
1.3837203e-01 1.2506105e-01 -3.9751659e-04 
1.3931324e-01 1.2624511e-01 -2.3754961e-03 
1.3930631e-01 1.2617911e-01 -1.8692503e-03 
1.3848369e-01 1.2539491e-01 -2.2949958e-03 
1.3974166e-01 1.2674651e-01 -2.9487940e-03 
1.3768443e-01 1.2452289e-01 -1.7566646e-03 
1.3774045e-01 1.2443743e-01 -5.3696107e-04 
1.3851646e-01 1.2528953e-01 -1.0999227e-03 
1.3770700e-01 1.2462106e-01 -2.4077843e-03 
1.3777211e-01 1.2447750e-01 -6.0110848e-04 
1.3714339e-01 1.2389632e-01 -1.0772283e-03 
1.3698781e-01 1.2387483e-01 -2.2501375e-03 
1.3705023e-01 1.2372073e-01 -3.8123163e-04 
1.3666277e-01 1.2348918e-01 -1.7606060e-03 
1.3671908e-01 1.2340253e-01 -5.2578916e-04 
1.3716015e-01 1.2405459e-01 -2.3020108e-03 
1.3663128e-01 1.2336535e-01 -9.7344466e-04 
1.3719745e-01 1.2395416e-01 -1.1037310e-03 
1.3611741e-01 1.2285694e-01 -1.0695832e-03 
1.3807468e-01 1.2505728e-01 -2.9610023e-03 
1.3724346e-01 1.2414701e-01 -2.3729450e-03 
1.3636394e-01 1.2326230e-01 -2.4203639e-03 
1.3725962e-01 1.2409700e-01 -1.7968542e-03 
1.3643508e-01 1.2312312e-01 -5.9091620e-04 
1.3563184e-01 1.2244594e-01 -1.7641563e-03 
1.3568887e-01 1.2235905e-01 -5.1453384e-04 
1.3562767e-01 1.2249915e-01 -2.2632072e-03 
1.3569584e-01 1.2234890e-01 -3.6529056e-04 
1.3508238e-01 1.2180916e-01 -1.0622904e-03 
1.3580377e-01 1.2268173e-01 -2.3086688e-03 
1.3584630e-01 1.2258726e-01 -1.1078718e-03 
1.3498756e-01 1.2187039e-01 -2.4330246e-03 
1.3459210e-01 1.2139420e-01 -1.7679406e-03 
1.3464962e-01 1.2130665e-01 -5.0312479e-04 
1.3506515e-01 1.2173641e-01 -5.8047177e-04 
1.3639967e-01 1.2336198e-01 -2.9730864e-03 
1.3423274e-01 1.2108919e-01 -2.2769384e-03 
1.3403799e-01 1.2075207e-01 -1.0546863e-03 
1.3543437e-01 1.2227608e-01 -2.0291000e-03 
1.3540010e-01 1.2229193e-01 -2.4704591e-03 
1.3430844e-01 1.2094423e-01 -3.4798947e-04 
1.3441315e-01 1.2127508e-01 -2.3145110e-03 
1.3446161e-01 1.2118707e-01 -1.1128248e-03 
1.3354257e-01 1.2033330e-01 -1.7717070e-03 
1.3360065e-01 1.2024510e-01 -4.9161853e-04 
1.3357592e-01 1.2044354e-01 -2.4451222e-03 
1.3366143e-01 1.2031598e-01 -5.7017524e-04 
1.3298367e-01 1.1968556e-01 -1.0469607e-03 
1.3471699e-01 1.2165918e-01 -2.9835636e-03 
1.3280158e-01 1.1964349e-01 -2.2902796e-03 
1.3288617e-01 1.1950494e-01 -3.3029635e-04 
1.3248402e-01 1.1926402e-01 -1.7742849e-03 
1.3254248e-01 1.1917488e-01 -4.8044440e-04 
1.3374804e-01 1.2057081e-01 -2.0355193e-03 
1.3371445e-01 1.2058734e-01 -2.4802743e-03 
1.3296421e-01 1.1981038e-01 -2.3200982e-03 
1.3300742e-01 1.1971699e-01 -1.1095996e-03 
1.3223553e-01 1.1894448e-01 -1.1780442e-03 
1.3192157e-01 1.1861184e-01 -1.0388918e-03 
1.3213924e-01 1.1899246e-01 -2.4570124e-03 
1.3224077e-01 1.1887848e-01 -5.4993783e-04 
1.3142504e-01 1.1819331e-01 -1.7670688e-03 
1.3148382e-01 1.1810528e-01 -4.7286678e-04 
1.3135916e-01 1.1818730e-01 -2.3017277e-03 
1.3302651e-01 1.1994983e-01 -2.9932125e-03 
1.3146779e-01 1.1807113e-01 -3.1360565e-04 
1.3086742e-01 1.1754709e-01 -1.0314847e-03 
1.3148808e-01 1.1831973e-01 -2.3297612e-03 
1.3157210e-01 1.1826285e-01 -1.0713752e-03 
1.3205853e-01 1.1886404e-01 -2.0443753e-03 
1.3202569e-01 1.1888109e-01 -2.4901980e-03 
1.3082813e-01 1.1752237e-01 -1.1683588e-03 
1.3037434e-01 1.1713203e-01 -1.7595524e-03 
1.3070798e-01 1.1754778e-01 -2.4687543e-03 
1.3043262e-01 1.1704361e-01 -4.6512458e-04 
1.3083327e-01 1.1745524e-01 -5.2501942e-04 
1.2982132e-01 1.1649035e-01 -1.0234191e-03 
1.2994286e-01 1.1675847e-01 -2.3122989e-03 
1.3007267e-01 1.1666210e-01 -2.9738466e-04 
1.3133597e-01 1.1824168e-01 -3.0019626e-03 
1.3006847e-01 1.1688781e-01 -2.3418018e-03 
1.3017608e-01 1.1684930e-01 -1.0314469e-03 
1.2933066e-01 1.1607809e-01 -1.7522918e-03 
1.2938915e-01 1.1599061e-01 -4.5758279e-04 
1.3028142e-01 1.1710971e-01 -2.4045848e-03 
1.3033170e-01 1.1709324e-01 -1.8031314e-03 
1.2930237e-01 1.1613039e-01 -2.4796464e-03 
1.2944821e-01 1.1605521e-01 -5.0066790e-04 
1.2908952e-01 1.1576710e-01 -1.1547740e-03 
1.2878262e-01 1.1544239e-01 -1.0158045e-03 
1.2870002e-01 1.1527640e-01 -2.8106748e-04 
1.2855089e-01 1.1535520e-01 -2.3218857e-03 
1.2829515e-01 1.1503281e-01 -1.7444086e-03 
1.2835346e-01 1.1494622e-01 -4.5025893e-04 
1.2880194e-01 1.1545934e-01 -9.9259301e-04 
1.2867342e-01 1.1548179e-01 -2.3538924e-03 
1.2964885e-01 1.1653922e-01 -3.0102648e-03 
1.2775128e-01 1.1440252e-01 -1.0085152e-03 
1.2808514e-01 1.1467861e-01 -4.7696740e-04 
1.2792075e-01 1.1473857e-01 -2.4897514e-03 
1.2865545e-01 1.1548109e-01 -2.5089935e-03 
1.2854005e-01 1.1529037e-01 -1.8429211e-03 
1.2726684e-01 1.1399585e-01 -1.7364300e-03 
1.2730333e-01 1.1388881e-01 -4.5400890e-04 
1.2734903e-01 1.1391298e-01 -2.6401837e-04 
1.2718323e-01 1.1397785e-01 -2.3316143e-03 
1.2690581e-01 1.1356972e-01 -1.1808919e-03 
1.2672718e-01 1.1336984e-01 -1.0005366e-03 
1.2744881e-01 1.1409162e-01 -9.5541740e-04 
1.2715861e-01 1.1395160e-01 -2.3281970e-03 
1.2674274e-01 1.1332465e-01 -4.5477561e-04 
1.2656318e-01 1.1337113e-01 -2.4988551e-03 
1.2624536e-01 1.1296578e-01 -1.7278692e-03 
1.2796655e-01 1.1484372e-01 -3.0180688e-03 
1.2630321e-01 1.1288003e-01 -4.3517083e-04 
1.2617636e-01 1.1282772e-01 -1.1130634e-03 
1.2700155e-01 1.1373992e-01 -1.8417628e-03 
1.2571029e-01 1.1234560e-01 -9.9301129e-04 
1.2601781e-01 1.1257236e-01 -2.4950827e-04 
1.2583862e-01 1.1262391e-01 -2.3390674e-03 
1.2697531e-01 1.1378876e-01 -2.5164711e-03 
1.2611702e-01 1.1274718e-01 -9.1850478e-04 
1.2595537e-01 1.1274473e-01 -2.3753790e-03 
1.2523124e-01 1.1194425e-01 -1.7198595e-03 
1.2528914e-01 1.1185899e-01 -4.2780206e-04 
1.2542148e-01 1.1199298e-01 -4.3214962e-04 
1.2522855e-01 1.1202787e-01 -2.5066573e-03 
1.2490650e-01 1.1153094e-01 -9.3933224e-04 
1.2470011e-01 1.1132886e-01 -9.8550937e-04 
1.2628634e-01 1.1315159e-01 -3.0244240e-03 
1.2470764e-01 1.1125305e-01 -2.3338440e-04 
1.2451623e-01 1.1129396e-01 -2.3464593e-03 
1.2546165e-01 1.1216828e-01 -1.6534089e-03 
1.2532340e-01 1.1210764e-01 -2.3635875e-03 
1.2422374e-01 1.1093023e-01 -1.7112795e-03 
1.2480551e-01 1.1142343e-01 -8.8301382e-04 
1.2418921e-01 1.1074556e-01 -3.5924427e-04 
1.2463050e-01 1.1141249e-01 -2.3859306e-03 
1.2369634e-01 1.1031915e-01 -9.7836624e-04 
1.2411979e-01 1.1068160e-01 -4.0968441e-04 
1.2391581e-01 1.1070810e-01 -2.5136832e-03 
1.2328091e-01 1.0983907e-01 -4.1354942e-04 
1.2320426e-01 1.0989661e-01 -1.6318138e-03 
1.2341704e-01 1.0995432e-01 -2.1794873e-04 
1.2321491e-01 1.0998633e-01 -2.3529914e-03 
1.2460911e-01 1.1146309e-01 -3.0290198e-03 
1.2297499e-01 1.0962929e-01 -1.2995172e-03 
1.2351365e-01 1.1012154e-01 -8.4866543e-04 
1.2332673e-01 1.1010227e-01 -2.3959354e-03 
1.2269971e-01 1.0931746e-01 -9.7148505e-04 
1.2283733e-01 1.0939205e-01 -3.8907205e-04 
1.2362420e-01 1.1041638e-01 -2.5278989e-03 
1.2365359e-01 1.1039706e-01 -2.0831230e-03 
1.2243233e-01 1.0897933e-01 -3.4287621e-04 
1.2262366e-01 1.0940917e-01 -2.5195193e-03 
1.2232348e-01 1.0902850e-01 -1.7851302e-03 
1.2323013e-01 1.0989123e-01 -1.3522692e-03 
1.2301775e-01 1.0978417e-01 -2.3284142e-03 
1.2214480e-01 1.0867592e-01 -2.0345968e-04 
1.2193590e-01 1.0870104e-01 -2.3564720e-03 
1.2171023e-01 1.0832309e-01 -9.6416561e-04 
1.2224063e-01 1.0883912e-01 -8.1527676e-04 
1.2204504e-01 1.0881517e-01 -2.4050404e-03 
1.2293451e-01 1.0977865e-01 -3.0319674e-03 
1.2133994e-01 1.0787988e-01 -3.1153092e-04 
1.2123375e-01 1.0793522e-01 -1.7911223e-03 
1.2157404e-01 1.0812105e-01 -3.6854454e-04 
1.2135335e-01 1.0813405e-01 -2.5251105e-03 
1.2072740e-01 1.0733578e-01 -9.5672871e-04 
1.2195382e-01 1.0873820e-01 -2.5313904e-03 
1.2198228e-01 1.0871861e-01 -2.0876855e-03 
1.2089182e-01 1.0741642e-01 -1.8787663e-04 
1.2067685e-01 1.0743805e-01 -2.3609786e-03 
1.2098624e-01 1.0757662e-01 -7.8278926e-04 
1.2017976e-01 1.0687453e-01 -1.7646491e-03 
1.2064786e-01 1.0741625e-01 -2.4396330e-03 
1.2095097e-01 1.0759854e-01 -1.3104702e-03 
1.2009314e-01 1.0662775e-01 -3.0040278e-04 
1.2032871e-01 1.0686991e-01 -3.4852780e-04 
1.2010328e-01 1.0687939e-01 -2.5289454e-03 
1.1975034e-01 1.0635559e-01 -9.4949006e-04 
1.2126482e-01 1.0810068e-01 -3.0331912e-03 
1.1952666e-01 1.0616196e-01 -1.2379636e-03 
1.1965625e-01 1.0617702e-01 -1.7336740e-04 
1.2019733e-01 1.0695221e-01 -2.3274268e-03 
1.1930156e-01 1.0597741e-01 -1.6103544e-03 
1.1943761e-01 1.0619441e-01 -2.3643088e-03 
1.1934537e-01 1.0588794e-01 -3.8618874e-04 
1.1974967e-01 1.0633348e-01 -7.5107953e-04 
1.2028767e-01 1.0706540e-01 -2.5331995e-03 
1.2031555e-01 1.0704555e-01 -2.0903293e-03 
1.1954205e-01 1.0630430e-01 -2.4207749e-03 
1.1896349e-01 1.0549007e-01 -2.4238772e-04 
1.1878008e-01 1.0538264e-01 -9.4255561e-04 
1.1910105e-01 1.0563798e-01 -3.2810369e-04 
1.1887234e-01 1.0564513e-01 -2.5322540e-03 
1.1852328e-01 1.0506531e-01 -3.9151945e-04 
1.1832061e-01 1.0499900e-01 -1.6547129e-03 
1.1843830e-01 1.0495485e-01 -1.5889267e-04 
1.1821719e-01 1.0497187e-01 -2.3668015e-03 
1.1959846e-01 1.0642830e-01 -3.0337607e-03 
1.1853023e-01 1.0510860e-01 -7.2031887e-04 
1.1781601e-01 1.0441636e-01 -9.3528413e-04 
1.1818793e-01 1.0495044e-01 -2.4518636e-03 
1.1771540e-01 1.0424288e-01 -2.6701667e-04 
1.1849286e-01 1.0513790e-01 -1.3464043e-03 
1.1789041e-01 1.0442372e-01 -3.0911912e-04 
1.1771350e-01 1.0432281e-01 -1.0245080e-03 
1.1742485e-01 1.0411571e-01 -1.7833401e-03 
1.1862479e-01 1.0539816e-01 -2.5344505e-03 
1.1766033e-01 1.0443065e-01 -2.5348398e-03 
1.1865199e-01 1.0537814e-01 -2.0927063e-03 
1.1723688e-01 1.0375176e-01 -1.4551019e-04 
1.1775315e-01 1.0450018e-01 -2.3147187e-03 