# vtk DataFile Version 4.0
vtk output
ASCII
DATASET UNSTRUCTURED_GRID
POINTS 4496 float
-4.3633327e-01 9.6409470e-01 4.4200001e+01 
-4.3633258e-01 9.6409065e-01 4.4074627e+01 
-3.2152572e-01 9.1279918e-01 4.4200001e+01 
-3.8534868e-01 8.4052670e-01 4.4200001e+01 
-3.9589554e-01 8.5545403e-01 4.4010014e+01 
-3.2616228e-01 9.1667932e-01 4.4011734e+01 
-4.3633190e-01 9.6408653e-01 4.3948376e+01 
-2.1293370e-01 8.4677851e-01 4.4200001e+01 
-2.9042658e-01 7.3813015e-01 4.4200001e+01 
-2.1010752e-01 8.4669363e-01 4.4073502e+01 
-2.8908840e-01 7.3604190e-01 4.4072292e+01 
-3.9589015e-01 8.5505831e-01 4.3883316e+01 
-3.2487559e-01 9.1697580e-01 4.3885036e+01 
-2.0722924e-01 8.4660655e-01 4.3944645e+01 
-1.1981077e-01 7.7773046e-01 4.4200001e+01 
-2.8772619e-01 7.3391593e-01 4.3942276e+01 
-4.3633121e-01 9.6408242e-01 4.3821228e+01 
-1.9739023e-01 6.6468561e-01 4.4200001e+01 
-2.9444304e-01 7.8727525e-01 4.3879974e+01 
-8.7554991e-02 7.5255024e-01 4.4042213e+01 
-1.6445170e-01 6.4084798e-01 4.4041008e+01 
-3.2357255e-01 9.1726828e-01 4.3757431e+01 
-3.9587301e-01 8.5463828e-01 4.3755711e+01 
-2.0429766e-01 8.4651643e-01 4.3813354e+01 
-2.8633916e-01 7.3175091e-01 4.3809875e+01 
-2.6899619e-02 6.8901783e-01 4.4200001e+01 
-1.0567340e-01 7.7152997e-01 4.3875790e+01 
-4.3633053e-01 9.6407831e-01 4.3693161e+01 
-8.7133333e-02 5.9509218e-01 4.4200001e+01 
-1.8777622e-01 6.5475601e-01 4.3873402e+01 
-2.0131156e-01 8.4642249e-01 4.3679543e+01 
-3.2225290e-01 9.1755641e-01 4.3628902e+01 
-3.9584404e-01 8.5419410e-01 4.3627178e+01 
-1.0114321e-03 6.6670936e-01 4.3939713e+01 
-2.8492665e-01 7.2954547e-01 4.3675007e+01 
-1.0131179e-01 7.7015632e-01 4.3743176e+01 
-6.0682178e-02 5.7631296e-01 4.3938457e+01 
3.9444737e-02 6.2338209e-01 4.4053139e+01 
-1.8470748e-01 6.5131217e-01 4.3739727e+01 
-7.0938184e-03 5.4737431e-01 4.4052326e+01 
-4.3632981e-01 9.6407413e-01 4.3564159e+01 
7.6947339e-02 5.8804804e-01 4.4200001e+01 
-1.2721874e-02 6.8194175e-01 4.3817982e+01 
-7.7214435e-02 5.8474159e-01 4.3819649e+01 
4.0195532e-02 5.2425718e-01 4.4200001e+01 
-1.9826968e-01 8.4632379e-01 4.3543118e+01 
-9.6842363e-02 7.6872379e-01 4.3607994e+01 
-3.2091641e-01 9.1783977e-01 4.3499420e+01 
-3.9580306e-01 8.5372573e-01 4.3497700e+01 
-2.8348783e-01 7.2729832e-01 4.3537586e+01 
-1.8155001e-01 6.4778340e-01 4.3603539e+01 
1.5678726e-01 5.2239102e-01 4.4060219e+01 
1.0298219e-02 6.6009766e-01 4.3674484e+01 
1.3250886e-01 4.7546524e-01 4.4058990e+01 
-4.3632913e-01 9.6407002e-01 4.3434200e+01 
-5.0139543e-02 5.6696451e-01 4.3671154e+01 
1.3504514e-01 5.4209155e-01 4.3856747e+01 
1.0361936e-01 4.8715758e-01 4.3855240e+01 
2.0846681e-01 4.8028421e-01 4.4200001e+01 
1.9279444e-01 4.4799727e-01 4.4200001e+01 
-9.2261828e-02 7.6722860e-01 4.3470158e+01 
-1.4701239e-03 6.7547697e-01 4.3552124e+01 
-1.9517080e-01 8.4621930e-01 4.3403992e+01 
-3.1956279e-01 9.1811794e-01 4.3368977e+01 
-3.9574999e-01 8.5323322e-01 4.3367252e+01 
-1.7830023e-01 6.4416617e-01 4.3464752e+01 
-6.7131944e-02 5.7555372e-01 4.3547829e+01 
-2.8202194e-01 7.2500783e-01 4.3397518e+01 
-4.3632844e-01 9.6406585e-01 4.3303261e+01 
1.5138821e-01 5.3037512e-01 4.3609200e+01 
1.2119007e-01 4.7490793e-01 4.3606068e+01 
-8.7566733e-02 7.6566672e-01 4.3329563e+01 
-1.7495437e-01 6.4045686e-01 4.3323273e+01 
-3.1819177e-01 9.1839045e-01 4.3237537e+01 
-3.9568463e-01 8.5271639e-01 4.3235813e+01 
2.2269404e-02 6.5294570e-01 4.3398811e+01 
-1.9201367e-01 8.4610778e-01 4.3262066e+01 
-3.8899176e-02 5.5709696e-01 4.3393635e+01 
-2.8052819e-01 7.2267252e-01 4.3254715e+01 
3.7877345e-01 3.8273901e-01 4.4200001e+01 
-4.3632776e-01 9.6406174e-01 4.3171322e+01 
3.9241230e-01 3.7329337e-01 4.3965439e+01 
1.0283732e-02 6.6872352e-01 4.3271511e+01 
-5.6385640e-02 5.6585240e-01 4.3265472e+01 
-8.2753494e-02 7.6403379e-01 4.3186119e+01 
-4.0345609e-01 8.6371827e-01 4.3104889e+01 
-3.1680310e-01 9.1865683e-01 4.3105087e+01 
-1.7150842e-01 6.3665158e-01 4.3179005e+01 
-1.8879703e-01 8.4598809e-01 4.3117241e+01 
-2.7900568e-01 7.2029078e-01 4.3109074e+01 
4.0610775e-01 3.6380205e-01 4.3729839e+01 
1.6776134e-01 5.1882964e-01 4.3331150e+01 
-4.3632707e-01 9.6405768e-01 4.3038357e+01 
1.4031014e-01 4.6124566e-01 4.3307755e+01 
3.4952711e-02 6.4519531e-01 4.3111935e+01 
-7.7818394e-02 7.6232505e-01 4.3039719e+01 
-3.1539652e-01 9.1891652e-01 4.2971603e+01 
-3.9551663e-01 8.5160977e-01 4.2969879e+01 
-2.6899155e-02 5.4666573e-01 4.3105160e+01 
-1.6795819e-01 6.3274628e-01 4.3031849e+01 
-1.8551964e-01 8.4585863e-01 4.2969406e+01 
4.1985780e-01 3.5425979e-01 4.3493168e+01 
-2.7745360e-01 7.1786088e-01 4.2960495e+01 
-4.3632638e-01 9.6405357e-01 4.2904346e+01 
2.2723136e-02 6.6139150e-01 4.2979332e+01 
-4.4916678e-02 5.5559248e-01 4.2971806e+01 
-3.1397179e-01 9.1916907e-01 4.2837063e+01 
-3.9541367e-01 8.5101974e-01 4.2835335e+01 
-7.2757579e-02 7.6053542e-01 4.2890255e+01 
-1.6429928e-01 6.2873662e-01 4.2881699e+01 
1.8463810e-01 5.0694346e-01 4.3035332e+01 
-1.8218029e-01 8.4571803e-01 4.2818455e+01 
1.5503895e-01 4.5003417e-01 4.3027725e+01 
-2.7587104e-01 7.1538109e-01 4.2808868e+01 
4.3366045e-01 3.4466109e-01 4.3255390e+01 
-4.3632573e-01 9.6404958e-01 4.2769268e+01 
-3.8429454e-01 8.3484912e-01 4.2710606e+01 
-3.1252861e-01 9.1941386e-01 4.2701439e+01 
4.8404284e-02 6.3678014e-01 4.2813030e+01 
-1.4070326e-02 5.3562075e-01 4.2804932e+01 
-6.7567028e-02 7.5865942e-01 4.2737610e+01 
-1.6052702e-01 6.2461799e-01 4.2728443e+01 
-1.7877772e-01 8.4556442e-01 4.2664265e+01 
-4.3632504e-01 9.6404558e-01 4.2633099e+01 
-2.7425703e-01 7.1284944e-01 4.2654083e+01 
4.4751364e-01 3.3500037e-01 4.3016472e+01 
3.5901129e-02 6.5341437e-01 4.2674721e+01 
-3.7959340e-01 8.2794034e-01 4.2568317e+01 
-3.1106678e-01 9.1965032e-01 4.2564713e+01 
-3.2659348e-02 5.4472327e-01 4.2665997e+01 
2.0396979e-01 4.9291667e-01 4.2740131e+01 
-6.2242586e-02 7.5669110e-01 4.2581669e+01 
1.7765003e-01 4.3475360e-01 4.2732578e+01 
-1.5663649e-01 6.2038553e-01 4.2571964e+01 
-4.3632439e-01 9.6404165e-01 4.2495808e+01 
-1.7531081e-01 8.4539592e-01 4.2506718e+01 
-2.7261066e-01 7.1026409e-01 4.2496017e+01 
-3.0958602e-01 9.1987789e-01 4.2426853e+01 
-3.7859210e-01 8.2613736e-01 4.2421188e+01 
4.6141517e-01 3.2527190e-01 4.2776375e+01 
6.2686495e-02 6.2762415e-01 4.2501175e+01 
-3.3570320e-04 5.2390522e-01 4.2492062e+01 
-5.6779940e-02 7.5462401e-01 4.2422298e+01 
-4.3632373e-01 9.6403772e-01 4.2357380e+01 
-1.5262254e-01 6.1603409e-01 4.2412144e+01 
-1.7177837e-01 8.4521037e-01 4.2345684e+01 
-2.7093092e-01 7.0762289e-01 4.2334549e+01 
-3.0808610e-01 9.2009580e-01 4.2287842e+01 
-3.8275370e-01 8.3137155e-01 4.2275047e+01 
4.9876589e-02 6.4471585e-01 4.2356720e+01 
-1.9539909e-02 5.3318781e-01 4.2347118e+01 
-4.3632311e-01 9.6403396e-01 4.2217781e+01 
2.1959943e-01 4.8236796e-01 4.2385345e+01 
-5.1174615e-02 7.5245124e-01 4.2259373e+01 
1.9034323e-01 4.2346162e-01 4.2378918e+01 
-1.4847966e-01 6.1155808e-01 4.2248856e+01 
4.7536272e-01 3.1546980e-01 4.2535065e+01 
-1.6817927e-01 8.4500539e-01 4.2181026e+01 
-2.6921678e-01 7.0492369e-01 4.2169544e+01 
-3.0656675e-01 9.2030340e-01 4.2147648e+01 
-3.9470181e-01 8.4769493e-01 4.2145920e+01 
7.7868804e-02 6.1763972e-01 4.2175373e+01 
-4.3632248e-01 9.6403021e-01 4.2076988e+01 
1.4390758e-02 5.1145434e-01 4.2165581e+01 
-4.5421973e-02 7.5016522e-01 4.2092751e+01 
-1.4420210e-01 6.0695171e-01 4.2081959e+01 
-3.0502778e-01 9.2049998e-01 4.2006248e+01 
-4.0175444e-01 8.5747409e-01 4.2004128e+01 
-1.6451253e-01 8.4477836e-01 4.2012604e+01 
4.8935395e-01 3.0558801e-01 4.2292507e+01 
-2.6746723e-01 7.0216429e-01 4.2000870e+01 
6.4714879e-02 6.3520777e-01 4.2024277e+01 
-4.3632188e-01 9.6402657e-01 4.1934975e+01 
-5.4755262e-03 5.2092212e-01 4.2014156e+01 
-2.3078828e-01 8.1064087e-01 4.1931458e+01 
2.3550548e-01 4.7116494e-01 4.2073269e+01 
2.0610523e-01 4.1123796e-01 4.2066772e+01 
-3.9517213e-02 7.4775779e-01 4.1922287e+01 
-1.3978374e-01 6.0220873e-01 4.1911320e+01 
-3.0346894e-01 9.2068475e-01 4.1863613e+01 
-3.9432141e-01 8.4618556e-01 4.1861881e+01 
-1.6077711e-01 8.4452641e-01 4.1840263e+01 
-2.6568118e-01 6.9934219e-01 4.1828377e+01 
-4.3632129e-01 9.6402299e-01 4.1791718e+01 
5.0338638e-01 2.9562023e-01 4.2048656e+01 
9.4028555e-02 6.0672593e-01 4.1834507e+01 
3.0205652e-02 4.9819478e-01 4.1824417e+01 
-3.8116732e-01 8.2744831e-01 4.1725647e+01 
-3.0189002e-01 9.2085695e-01 4.1719719e+01 
-3.3455357e-02 7.4522001e-01 4.1747829e+01 
-1.3521814e-01 5.9732240e-01 4.1736786e+01 
-4.3632072e-01 9.6401960e-01 4.1647179e+01 
-1.5697217e-01 8.4424627e-01 4.1663853e+01 
-2.6385748e-01 6.9645494e-01 4.1651920e+01 
8.0488607e-02 6.2478805e-01 4.1676235e+01 
2.6870471e-01 4.4547972e-01 4.1752304e+01 
9.6269641e-03 5.0785345e-01 4.1665993e+01 
2.4764967e-01 3.8646612e-01 4.1743168e+01 
-3.0029076e-01 9.2101562e-01 4.1574532e+01 
-3.9388368e-01 8.4456980e-01 4.1572796e+01 
5.1745731e-01 2.8556010e-01 4.1803486e+01 
-2.7231261e-02 7.4254233e-01 4.1569210e+01 
-1.3049847e-01 5.9228569e-01 4.1558201e+01 
-4.3632016e-01 9.6401632e-01 4.1501339e+01 
-1.5309690e-01 8.4393430e-01 4.1483204e+01 
-2.6199502e-01 6.9349992e-01 4.1471333e+01 
-2.9867104e-01 9.2115986e-01 4.1428024e+01 
-3.9364263e-01 8.4372103e-01 4.1426289e+01 
1.1125199e-01 5.9476525e-01 4.1477348e+01 
4.7217656e-02 4.8404291e-01 4.1467384e+01 
-4.3631962e-01 9.6401310e-01 4.1354160e+01 
-2.0839609e-02 7.3971421e-01 4.1386261e+01 
-1.2561750e-01 5.8709091e-01 4.1375404e+01 
5.3156406e-01 2.7540097e-01 4.1556946e+01 
-1.4915068e-01 8.4358656e-01 4.1298138e+01 
-2.9703063e-01 9.2128879e-01 4.1280167e+01 
-3.9338648e-01 8.4284443e-01 4.1278431e+01 
-2.6009262e-01 6.9047421e-01 4.1286449e+01 
2.9365057e-01 4.2687622e-01 4.1391586e+01 
9.7278498e-02 6.1333776e-01 4.1311302e+01 
2.7470219e-01 3.6807936e-01 4.1382729e+01 
2.5872495e-02 4.9389899e-01 4.1301384e+01 
-4.3631911e-01 9.6401012e-01 4.1205620e+01 
-1.4274905e-02 7.3672432e-01 4.1198803e+01 
-1.2056758e-01 5.8173001e-01 4.1188221e+01 
-2.9536936e-01 9.2140132e-01 4.1130928e+01 
[...]
POINT_DATA 4496
FIELD FieldData 5
DISPLACEMENT 3 4496  float
2.4292150e-03 2.7732728e-03 -4.2761239e-05 
2.4176906e-03 2.7558783e-03 -4.2758678e-05 
2.4365138e-03 2.7896126e-03 -4.6202273e-05 
2.4468009e-03 2.7805308e-03 -3.0306670e-05 
2.4272110e-03 2.7526713e-03 -3.1405736e-05 
2.4186550e-03 2.7628308e-03 -4.6310732e-05 
2.4060893e-03 2.7383678e-03 -4.2755546e-05 
2.4459104e-03 2.8050726e-03 -4.7031059e-05 
2.4613766e-03 2.7940439e-03 -2.4828652e-05 
2.4342907e-03 2.7879204e-03 -4.7277037e-05 
2.4499302e-03 2.7765124e-03 -2.4659867e-05 
2.4156233e-03 2.7350995e-03 -3.1349133e-05 
2.4069708e-03 2.7454388e-03 -4.6467896e-05 
2.4224576e-03 2.7704465e-03 -4.7526151e-05 
2.4557395e-03 2.8183323e-03 -4.6018584e-05 
2.4382761e-03 2.7586683e-03 -2.4490397e-05 
2.3944108e-03 2.7207392e-03 -4.2751424e-05 
2.4718335e-03 2.8072917e-03 -2.3194780e-05 
2.4249570e-03 2.7490684e-03 -3.1274882e-05 
2.4448123e-03 2.8010246e-03 -4.5489993e-05 
2.4606013e-03 2.7899123e-03 -2.2914566e-05 
2.3952122e-03 2.7279300e-03 -4.6619010e-05 
2.4039587e-03 2.7174123e-03 -3.1293363e-05 
2.4104053e-03 2.7526461e-03 -4.7778580e-05 
2.4264099e-03 2.7404998e-03 -2.4317833e-05 
2.4683706e-03 2.8315678e-03 -4.2258100e-05 
2.4268096e-03 2.7753415e-03 -4.6451081e-05 
2.3826638e-03 2.7029936e-03 -4.2744246e-05 
2.4817467e-03 2.8229952e-03 -2.3676315e-05 
2.4432021e-03 2.7633319e-03 -2.2698849e-05 
2.3981305e-03 2.7345098e-03 -4.8032591e-05 
2.3833781e-03 2.7103026e-03 -4.6772682e-05 
2.3922238e-03 2.6996129e-03 -3.1238960e-05 
2.4476019e-03 2.7991110e-03 -4.1541218e-05 
2.4143241e-03 2.7220014e-03 -2.4145129e-05 
2.4148165e-03 2.7575546e-03 -4.6655914e-05 
2.4603503e-03 2.7904471e-03 -2.3498897e-05 
2.4642041e-03 2.8206271e-03 -3.9252602e-05 
2.4313922e-03 2.7452214e-03 -2.2505465e-05 
2.4749534e-03 2.8138901e-03 -2.4411938e-05 
2.3708360e-03 2.6851401e-03 -4.2738182e-05 
2.4827535e-03 2.8463714e-03 -3.7800353e-05 
2.4342362e-03 2.7805371e-03 -4.2575248e-05 
2.4482145e-03 2.7715995e-03 -2.3147957e-05 
2.4918432e-03 2.8411383e-03 -2.5555166e-05 
2.3856238e-03 2.7160258e-03 -4.8287980e-05 
2.4026008e-03 2.7394304e-03 -4.6859976e-05 
2.3714702e-03 2.6925637e-03 -4.6922076e-05 
2.3804123e-03 2.6816956e-03 -3.1175670e-05 
2.4020206e-03 2.7031645e-03 -2.3970484e-05 
2.4193688e-03 2.7267812e-03 -2.2308674e-05 
2.4792377e-03 2.8383282e-03 -3.6032423e-05 
2.4241423e-03 2.7638811e-03 -4.1659601e-05 
2.4858082e-03 2.8347000e-03 -2.7273272e-05 
2.3589383e-03 2.6671612e-03 -4.2726588e-05 
2.4370702e-03 2.7548324e-03 -2.3172754e-05 
2.4576946e-03 2.8069478e-03 -3.6765847e-05 
2.4653708e-03 2.8022691e-03 -2.6233864e-05 
2.4981133e-03 2.8651273e-03 -3.4943841e-05 
2.5027145e-03 2.8628951e-03 -2.9008639e-05 
2.3901595e-03 2.7209604e-03 -4.7065321e-05 
2.4107108e-03 2.7452218e-03 -4.2703345e-05 
2.3728842e-03 2.6971921e-03 -4.8546128e-05 
2.3594829e-03 2.6747044e-03 -4.7073685e-05 
2.3685289e-03 2.6636664e-03 -3.1116622e-05 
2.4071247e-03 2.7080067e-03 -2.2115155e-05 
2.4244995e-03 2.7353063e-03 -2.2809445e-05 
2.3894839e-03 2.6839802e-03 -2.3797211e-05 
2.3469615e-03 2.6490735e-03 -4.2717387e-05 
2.4365622e-03 2.7748516e-03 -3.6640504e-05 
2.4441490e-03 2.7701312e-03 -2.6147789e-05 
2.3774863e-03 2.7021405e-03 -4.7264450e-05 
2.3946506e-03 2.6888843e-03 -2.1916179e-05 
2.3474267e-03 2.6567378e-03 -4.7218720e-05 
2.3565756e-03 2.6455254e-03 -3.1056221e-05 
2.3998192e-03 2.7273116e-03 -4.1755564e-05 
2.3599041e-03 2.6779929e-03 -4.8802231e-05 
2.4129332e-03 2.7179210e-03 -2.2846585e-05 
2.3767154e-03 2.6644405e-03 -2.3623248e-05 
2.5120168e-03 2.8894064e-03 -3.7073100e-05 
2.3349107e-03 2.6308664e-03 -4.2709791e-05 
2.4917356e-03 2.8587030e-03 -3.7012411e-05 
2.3858994e-03 2.7079589e-03 -4.2829364e-05 
2.3999086e-03 2.6976827e-03 -2.2467704e-05 
2.3645787e-03 2.6829566e-03 -4.7463167e-05 
2.3430432e-03 2.6263604e-03 -3.1873296e-05 
2.3352834e-03 2.6386413e-03 -4.7370468e-05 
2.3819536e-03 2.6694157e-03 -2.1721326e-05 
2.3466810e-03 2.6584317e-03 -4.9057428e-05 
2.3637183e-03 2.6445470e-03 -2.3441697e-05 
2.4713476e-03 2.8278406e-03 -3.6949099e-05 
2.4126021e-03 2.7385342e-03 -3.6540900e-05 
2.3227811e-03 2.6125507e-03 -4.2702235e-05 
2.4186019e-03 2.7314005e-03 -2.6017644e-05 
2.3745918e-03 2.6893332e-03 -4.1826781e-05 
2.3514300e-03 2.6634068e-03 -4.7655336e-05 
2.3230882e-03 2.6204453e-03 -4.7508121e-05 
2.3324366e-03 2.6088869e-03 -3.0929281e-05 
2.3878969e-03 2.6796509e-03 -2.2521455e-05 
2.3690113e-03 2.6495834e-03 -2.1520153e-05 
2.3332080e-03 2.6384850e-03 -4.9309685e-05 
2.4508559e-03 2.7967943e-03 -3.6882117e-05 
2.3504689e-03 2.6242766e-03 -2.3269185e-05 
2.3105980e-03 2.5941117e-03 -4.2682790e-05 
2.3601644e-03 2.6692543e-03 -4.2927797e-05 
2.3744004e-03 2.6586717e-03 -2.2129705e-05 
2.3108122e-03 2.6021311e-03 -4.7654845e-05 
2.3202731e-03 2.5904113e-03 -3.0871404e-05 
2.3380364e-03 2.6434767e-03 -4.7844991e-05 
2.3558412e-03 2.6293930e-03 -2.1328751e-05 
2.3870883e-03 2.6998543e-03 -3.6437788e-05 
2.3194773e-03 2.6181473e-03 -4.9557952e-05 
2.3944208e-03 2.6946259e-03 -2.5829038e-05 
2.3369871e-03 2.6036485e-03 -2.3100134e-05 
2.4302769e-03 2.7656218e-03 -3.6828795e-05 
2.2983290e-03 2.5755884e-03 -4.2667773e-05 
2.3112097e-03 2.5748743e-03 -2.9664010e-05 
2.2984762e-03 2.5837282e-03 -4.7783204e-05 
2.3484256e-03 2.6498926e-03 -4.1867625e-05 
2.3619265e-03 2.6399768e-03 -2.2207529e-05 
2.3243858e-03 2.6231699e-03 -4.8029156e-05 
2.3424143e-03 2.6088294e-03 -2.1127307e-05 
2.3055039e-03 2.5974442e-03 -4.9802915e-05 
2.2860044e-03 2.5569526e-03 -4.2644671e-05 
2.3232428e-03 2.5826127e-03 -2.2924547e-05 
2.4096069e-03 2.7343007e-03 -3.6759280e-05 
2.3334716e-03 2.6290617e-03 -4.2994950e-05 
2.2992834e-03 2.5560637e-03 -2.9142120e-05 
2.2860765e-03 2.5652095e-03 -4.7898920e-05 
2.3479394e-03 2.6182313e-03 -2.1800844e-05 
2.3619870e-03 2.6616924e-03 -3.6264133e-05 
2.3105016e-03 2.6024731e-03 -4.8215275e-05 
2.3694665e-03 2.6569532e-03 -2.5815056e-05 
2.3287523e-03 2.5878933e-03 -2.0953950e-05 
2.2736220e-03 2.5382065e-03 -4.2605112e-05 
2.2912556e-03 2.5763325e-03 -5.0055343e-05 
2.3092476e-03 2.5612172e-03 -2.2758448e-05 
2.2735971e-03 2.5465921e-03 -4.8027527e-05 
2.2862360e-03 2.5361464e-03 -2.9005047e-05 
2.3888999e-03 2.7029249e-03 -3.6683145e-05 
2.3212933e-03 2.6089372e-03 -4.1866486e-05 
2.3349954e-03 2.5988524e-03 -2.1898613e-05 
2.2963537e-03 2.5813864e-03 -4.8373215e-05 
2.2611632e-03 2.5193817e-03 -4.2578176e-05 
2.3148288e-03 2.5665746e-03 -2.0764137e-05 
2.2767500e-03 2.5548227e-03 -5.0290208e-05 
2.2949968e-03 2.5394333e-03 -2.2592892e-05 
2.2610722e-03 2.5278891e-03 -4.8143174e-05 
2.2723388e-03 2.5157137e-03 -2.9364370e-05 
2.3057968e-03 2.5873156e-03 -4.3014170e-05 
2.3205210e-03 2.5763223e-03 -2.1476939e-05 
2.2486558e-03 2.5004768e-03 -4.2546675e-05 
2.3310699e-03 2.6149584e-03 -3.6233632e-05 
2.2819524e-03 2.5599084e-03 -4.8522557e-05 
2.3387144e-03 2.6099919e-03 -2.5475492e-05 
2.3006585e-03 2.5448888e-03 -2.0582935e-05 
2.3681070e-03 2.6714050e-03 -3.6594181e-05 
2.2619781e-03 2.5329089e-03 -5.0520197e-05 
2.2804802e-03 2.5172550e-03 -2.2431412e-05 
2.2485037e-03 2.5091139e-03 -4.8245816e-05 
2.2584850e-03 2.4965859e-03 -3.0519190e-05 
2.2931849e-03 2.5664482e-03 -4.1824580e-05 
2.2360939e-03 2.4814694e-03 -4.2520376e-05 
2.3070918e-03 2.5562625e-03 -2.1623227e-05 
2.2672934e-03 2.5380338e-03 -4.8664788e-05 
2.2862540e-03 2.5228155e-03 -2.0391564e-05 
2.2358394e-03 2.4902036e-03 -4.8376693e-05 
2.2444287e-03 2.4764673e-03 -3.1231484e-05 
2.2469352e-03 2.5105865e-03 -5.0741688e-05 
2.3472814e-03 2.6398124e-03 -3.6507307e-05 
2.2657323e-03 2.4947058e-03 -2.2256078e-05 
2.2771452e-03 2.5440427e-03 -4.2987544e-05 
2.2234314e-03 2.4623547e-03 -4.2502601e-05 
2.2921201e-03 2.5329411e-03 -2.1181653e-05 
2.2444511e-03 2.4904383e-03 -4.0170598e-05 
2.3043291e-03 2.5744296e-03 -3.6136105e-05 
2.3120674e-03 2.5694647e-03 -2.5305253e-05 
2.2523799e-03 2.5157726e-03 -4.8802460e-05 
2.2715880e-03 2.5003690e-03 -2.0202437e-05 
2.2231136e-03 2.4712023e-03 -4.8488724e-05 
2.2332990e-03 2.4583524e-03 -3.0391006e-05 
2.2316177e-03 2.4878725e-03 -5.0969080e-05 
2.2507189e-03 2.4717187e-03 -2.2081018e-05 
2.2107221e-03 2.4431332e-03 -4.2461026e-05 
2.3264710e-03 2.6082455e-03 -3.6425896e-05 
2.2640801e-03 2.5223976e-03 -4.1738473e-05 
2.2781983e-03 2.5121868e-03 -2.1364418e-05 
2.2238176e-03 2.4419217e-03 -2.9029998e-05 
2.2103586e-03 2.4521328e-03 -4.8573387e-05 
2.2371819e-03 2.4930672e-03 -4.8933136e-05 
2.2566465e-03 2.4774962e-03 -2.0008654e-05 
2.1979737e-03 2.4238217e-03 -4.2399199e-05 
2.2160262e-03 2.4647049e-03 -5.1186533e-05 
2.2354068e-03 2.4483248e-03 -2.1931161e-05 
2.2474681e-03 2.4991725e-03 -4.2910797e-05 
2.2789894e-03 2.5353977e-03 -3.5628545e-05 
2.2626808e-03 2.4880201e-03 -2.0904359e-05 
2.2863178e-03 2.5312523e-03 -2.5765787e-05 
2.1975243e-03 2.4329666e-03 -4.8671853e-05 
2.2079472e-03 2.4198007e-03 -3.0220643e-05 
2.3057321e-03 2.5767926e-03 -3.6335627e-05 
2.2217196e-03 2.4699427e-03 -4.9049286e-05 
2.2414578e-03 2.4542408e-03 -1.9853362e-05 
2.1851754e-03 2.4044733e-03 -4.2347583e-05 
2.2001443e-03 2.4411187e-03 -5.1375373e-05 
2.2198320e-03 2.4245402e-03 -2.1794845e-05 
2.1846716e-03 2.4137369e-03 -4.8745515e-05 
2.1951916e-03 2.4004460e-03 -3.0161045e-05 
2.2339397e-03 2.4767152e-03 -4.1583931e-05 
2.2482877e-03 2.4665864e-03 -2.1111971e-05 
2.1723157e-03 2.3850764e-03 -4.2312746e-05 
2.2059835e-03 2.4464156e-03 -4.9135902e-05 
2.2259960e-03 2.4305827e-03 -1.9668310e-05 
2.2849503e-03 2.5452378e-03 -3.6208985e-05 
2.1839882e-03 2.4171213e-03 -5.1552965e-05 
2.1717607e-03 2.3944674e-03 -4.8823986e-05 
2.1823649e-03 2.3809958e-03 -3.0068828e-05 
2.2039921e-03 2.4003340e-03 -2.1611540e-05 
2.2493717e-03 2.4902630e-03 -3.5344379e-05 
2.2167529e-03 2.4526389e-03 -4.2779044e-05 
2.2566498e-03 2.4864874e-03 -2.5802428e-05 
2.2322563e-03 2.4415676e-03 -2.0630237e-05 
2.1594241e-03 2.3655435e-03 -4.2261607e-05 
2.1899953e-03 2.4224590e-03 -4.9234724e-05 
2.2102431e-03 2.4065110e-03 -1.9491268e-05 
2.1587922e-03 2.3750537e-03 -4.8912629e-05 
2.1695341e-03 2.3614576e-03 -3.0001103e-05 
2.1675497e-03 2.3926613e-03 -5.1744748e-05 
2.1878695e-03 2.3757210e-03 -2.1468615e-05 
2.2642196e-03 2.5137630e-03 -3.6097597e-05 
2.1464608e-03 2.3459706e-03 -4.2219675e-05 
2.2027686e-03 2.4293785e-03 -4.1385389e-05 
2.2173086e-03 2.4193765e-03 -2.0897563e-05 
2.1457821e-03 2.3556121e-03 -4.8996775e-05 
2.1566153e-03 2.3418481e-03 -2.9914749e-05 
2.1736929e-03 2.3980399e-03 -4.9292979e-05 
2.1942519e-03 2.3820398e-03 -1.9337440e-05 
2.1334770e-03 2.3263001e-03 -4.2150430e-05 
2.1508315e-03 2.3677724e-03 -5.1889427e-05 
2.1714440e-03 2.3506756e-03 -2.1305867e-05 
2.2187312e-03 2.4435199e-03 -3.5043246e-05 
2.2259641e-03 2.4401823e-03 -2.5852520e-05 
2.1867659e-03 2.4050497e-03 -4.1214167e-05 
2.2435838e-03 2.4824159e-03 -3.5988469e-05 
2.1327494e-03 2.3360797e-03 -4.9033184e-05 
2.1436950e-03 2.3222142e-03 -2.9867912e-05 
2.2014058e-03 2.3952066e-03 -2.0782149e-05 
2.1571580e-03 2.3732211e-03 -4.9340495e-05 
2.1779544e-03 2.3571427e-03 -1.9179814e-05 
2.1204399e-03 2.3066390e-03 -4.2101456e-05 
2.1337878e-03 2.3424299e-03 -5.2043706e-05 
2.1547989e-03 2.3252259e-03 -2.1160777e-05 
2.1196848e-03 2.3165804e-03 -4.9070772e-05 
2.1307052e-03 2.3025209e-03 -2.9779027e-05 
2.1705250e-03 2.3803168e-03 -4.1064108e-05 
2.1419059e-03 2.3219122e-03 -3.1380481e-05 
2.1852716e-03 2.3706446e-03 -2.0710742e-05 
2.1073872e-03 2.2868831e-03 -4.2016880e-05 
2.2229038e-03 2.4509360e-03 -3.5847253e-05 
2.1918365e-03 2.4030479e-03 -3.5133955e-05 
2.1403290e-03 2.3479713e-03 -4.9311770e-05 
2.1992961e-03 2.3987540e-03 -2.5151725e-05 
2.1614232e-03 2.3318962e-03 -1.9025058e-05 
2.1065655e-03 2.2969388e-03 -4.9076036e-05 
2.1176978e-03 2.2827832e-03 -2.9699333e-05 
2.1165630e-03 2.3167278e-03 -5.2099214e-05 
2.1378302e-03 2.2994010e-03 -2.1083570e-05 
2.0943035e-03 2.2671367e-03 -4.1968295e-05 
2.1540385e-03 2.3551928e-03 -4.0913543e-05 
2.1688673e-03 2.3457012e-03 -2.0618201e-05 
2.1232662e-03 2.3223266e-03 -4.9322520e-05 
2.0934679e-03 2.2773016e-03 -4.9108978e-05 
2.1046945e-03 2.2630137e-03 -2.9614243e-05 
2.1446042e-03 2.3062401e-03 -1.8853934e-05 
2.2022768e-03 2.4196780e-03 -3.5761150e-05 
2.0989969e-03 2.2905637e-03 -5.2239218e-05 
2.0811968e-03 2.2473149e-03 -4.1892996e-05 
2.1808313e-03 2.3731787e-03 -2.6689564e-05 
2.1756487e-03 2.3767964e-03 -3.3995220e-05 
2.1206166e-03 2.2731670e-03 -2.0907944e-05 
2.1372917e-03 2.3296715e-03 -4.0711329e-05 
2.1521749e-03 2.3203350e-03 -2.0562147e-05 
2.0803038e-03 2.2576083e-03 -4.9148999e-05 
2.0916259e-03 2.2431919e-03 -2.9529871e-05 
2.1059050e-03 2.2962266e-03 -4.9314982e-05 
2.1275433e-03 2.2801685e-03 -1.8709348e-05 
2.0680176e-03 2.2274239e-03 -4.1810043e-05 
2.1817840e-03 2.3884946e-03 -3.5585526e-05 
2.0811018e-03 2.2639222e-03 -5.2364583e-05 
2.1031112e-03 2.2464762e-03 -2.0735724e-05 
2.0670725e-03 2.2378664e-03 -4.9177670e-05 
2.0784703e-03 2.2232980e-03 -2.9458406e-05 
2.1604579e-03 2.3422078e-03 -2.6582689e-05 
2.1553007e-03 2.3458742e-03 -3.3860535e-05 
2.1198262e-03 2.3031586e-03 -4.0524304e-05 
2.1346293e-03 2.2936475e-03 -2.0463020e-05 
2.0824976e-03 2.2392247e-03 -3.5573154e-05 
2.0548359e-03 2.2075272e-03 -4.1703901e-05 
2.0880923e-03 2.2696324e-03 -4.9372265e-05 
2.1100349e-03 2.2534726e-03 -1.8605338e-05 
2.0538482e-03 2.2179352e-03 -4.9061928e-05 
2.0652446e-03 2.2034668e-03 -2.9526569e-05 
2.0632797e-03 2.2373428e-03 -5.2355957e-05 
2.1614314e-03 2.3575339e-03 -3.5403646e-05 
2.0857791e-03 2.2201489e-03 -2.0653220e-05 
2.0418537e-03 2.1880036e-03 -4.1648498e-05 
2.1011552e-03 2.2754723e-03 -4.0757743e-05 
2.1167190e-03 2.2661048e-03 -2.0192223e-05 
2.1403383e-03 2.3116544e-03 -2.6473850e-05 
2.1352174e-03 2.3153375e-03 -3.3686225e-05 
2.0648430e-03 2.2127570e-03 -3.5617599e-05 
2.0408779e-03 2.1984051e-03 -4.8929967e-05 
2.0701110e-03 2.2429933e-03 -4.9525766e-05 
2.0521986e-03 2.1839016e-03 -2.9559809e-05 
2.0926981e-03 2.2270740e-03 -1.8483090e-05 
2.0291139e-03 2.1687199e-03 -4.1526884e-05 
2.0460037e-03 2.2115512e-03 -5.2350770e-05 
2.0689189e-03 2.1945667e-03 -2.0581476e-05 
2.1412880e-03 2.3268780e-03 -3.5231464e-05 
2.0829535e-03 2.2487987e-03 -4.1183874e-05 
2.0993929e-03 2.2394620e-03 -1.9940449e-05 
2.0280334e-03 2.1790741e-03 -4.8855680e-05 
2.0393478e-03 2.1646603e-03 -2.9603736e-05 
2.1080312e-03 2.2757854e-03 -3.4551289e-05 
2.1157535e-03 2.2717144e-03 -2.4683493e-05 
2.0526648e-03 2.2171573e-03 -4.9674691e-05 
2.0757937e-03 2.2013015e-03 -1.8352217e-05 
2.0435289e-03 2.1806732e-03 -3.5529985e-05 
2.0165378e-03 2.1497854e-03 -4.1443102e-05 
2.0525078e-03 2.1696163e-03 -2.0471232e-05 
2.0291491e-03 2.1864080e-03 -5.2331769e-05 
2.0154468e-03 2.1600751e-03 -4.8740403e-05 
2.0267039e-03 2.1457446e-03 -2.9649134e-05 
2.0824783e-03 2.2135002e-03 -1.9680301e-05 
2.0652378e-03 2.2228451e-03 -4.1593961e-05 
2.1214192e-03 2.2967178e-03 -3.5100977e-05 
2.0041158e-03 2.1311245e-03 -4.1378025e-05 
2.0593086e-03 2.1762147e-03 -1.8223391e-05 
2.0356518e-03 2.1920232e-03 -4.9820344e-05 
2.0958469e-03 2.2555562e-03 -3.3444318e-05 
2.0954304e-03 2.2412634e-03 -2.4895617e-05 
2.0030029e-03 2.1413632e-03 -4.8620230e-05 
2.0132964e-03 2.1262276e-03 -2.9991344e-05 
2.0365287e-03 2.1452585e-03 -2.0278487e-05 
2.0127688e-03 2.1620351e-03 -5.2390260e-05 
2.0139921e-03 2.1387651e-03 -3.6961737e-05 
1.9918804e-03 2.1126461e-03 -4.1246116e-05 
2.0659219e-03 2.1881617e-03 -1.9489509e-05 
2.0538562e-03 2.2016095e-03 -3.9028026e-05 
2.0431820e-03 2.1517868e-03 -1.8182809e-05 
2.0191285e-03 2.1675176e-03 -4.9944727e-05 
1.9907129e-03 2.1228387e-03 -4.8470993e-05 
2.1019459e-03 2.2671609e-03 -3.5016044e-05 
2.0018735e-03 2.1085886e-03 -2.9672234e-05 
2.0143085e-03 2.1331965e-03 -3.3278448e-05 
2.0775923e-03 2.2141705e-03 -2.4750369e-05 
1.9798160e-03 2.0945075e-03 -4.1149557e-05 
2.0208112e-03 2.1215824e-03 -2.0283556e-05 
1.9968036e-03 2.1381916e-03 -5.2326926e-05 
2.0765355e-03 2.2262745e-03 -3.3280434e-05 
2.0498049e-03 2.1635387e-03 -1.9222065e-05 
2.0312523e-03 2.1730028e-03 -4.2183874e-05 
1.9786158e-03 2.1046526e-03 -4.8387981e-05 
1.9897548e-03 2.0904564e-03 -2.9690098e-05 
2.0274946e-03 2.1279992e-03 -1.8052237e-05 
2.0030420e-03 2.1436627e-03 -5.0012597e-05 
1.9932743e-03 2.1015622e-03 -3.3186236e-05 
1.9678948e-03 2.0766172e-03 -4.1055628e-05 
2.0826340e-03 2.2378953e-03 -3.4928376e-05 
2.0055554e-03 2.0984595e-03 -2.0129330e-05 
1.9812267e-03 2.1150152e-03 -5.2313972e-05 
2.0568050e-03 2.1806215e-03 -2.3362942e-05 
2.0455231e-03 2.1827188e-03 -3.5103927e-05 
1.9666615e-03 2.0867081e-03 -4.8266706e-05 
2.0340867e-03 2.1394775e-03 -1.9000854e-05 
1.9805171e-03 2.0734696e-03 -2.7737868e-05 
2.0149415e-03 2.1491277e-03 -4.2497053e-05 
1.9560878e-03 2.0589344e-03 -4.0976000e-05 
2.0121485e-03 2.1047331e-03 -1.7903883e-05 
1.9873416e-03 2.1204646e-03 -5.0073562e-05 
1.9659144e-03 2.0549097e-03 -2.9723076e-05 
1.9538696e-03 2.0665512e-03 -4.7545160e-05 
1.9906552e-03 2.0758975e-03 -2.0021163e-05 
1.9660024e-03 2.0923945e-03 -5.2300195e-05 
2.0635433e-03 2.2089013e-03 -3.4759087e-05 
1.9681633e-03 2.0725087e-03 -3.8273669e-05 
2.0187397e-03 2.1160815e-03 -1.8804487e-05 
1.9989731e-03 2.1257924e-03 -4.2796317e-05 
1.9444613e-03 2.0415692e-03 -4.0913717e-05 
1.9971328e-03 2.0821411e-03 -1.7858365e-05 
2.0386141e-03 2.1687024e-03 -3.2993070e-05 
2.0435532e-03 2.1650144e-03 -2.6146719e-05 
1.9599637e-03 2.0427112e-03 -2.7716251e-05 
1.9719766e-03 2.0977280e-03 -5.0098850e-05 
1.9453224e-03 2.0558976e-03 -4.8746606e-05 
2.0262597e-03 2.1314106e-03 -2.1330790e-05 
2.0127746e-03 2.1359615e-03 -3.6500558e-05 
1.9760160e-03 2.0539018e-03 -1.9973633e-05 
1.9512728e-03 2.0703517e-03 -5.2111598e-05 
1.9330422e-03 2.0244464e-03 -4.0799870e-05 
2.0037224e-03 2.0932057e-03 -1.8603479e-05 
1.9834915e-03 2.1031436e-03 -4.3050459e-05 
2.0445471e-03 2.1800762e-03 -3.4583143e-05 
1.9490023e-03 2.0250441e-03 -2.6880547e-05 
1.9328526e-03 2.0374162e-03 -4.8713413e-05 
1.9825012e-03 2.0599815e-03 -1.7779123e-05 
1.9570834e-03 2.0757050e-03 -5.0167273e-05 
1.9217789e-03 2.0075275e-03 -4.0683921e-05 
2.0199488e-03 2.1404510e-03 -3.2814318e-05 
2.0248245e-03 2.1367858e-03 -2.6072830e-05 
1.9617786e-03 2.0323568e-03 -1.9816001e-05 
1.9368620e-03 2.0489520e-03 -5.2055748e-05 
1.9890368e-03 2.0708723e-03 -1.8430150e-05 
1.9205023e-03 2.0186685e-03 -4.8448335e-05 
1.9638052e-03 2.0763285e-03 -4.4541339e-05 
2.0001153e-03 2.0916034e-03 -2.0990472e-05 
1.9346415e-03 2.0035617e-03 -2.6864889e-05 
1.9681545e-03 2.0383876e-03 -1.7716982e-05 
1.9425707e-03 2.0541740e-03 -5.0162624e-05 
1.9105873e-03 1.9908566e-03 -4.0572664e-05 
2.0259104e-03 2.1517600e-03 -3.4364461e-05 
1.9277085e-03 2.0116183e-03 -3.7798880e-05 
1.9478222e-03 2.0114186e-03 -1.9708541e-05 
1.9823816e-03 2.0894764e-03 -3.5853052e-05 
1.9089215e-03 1.9993330e-03 -4.7067071e-05 
1.9227775e-03 2.0279342e-03 -5.1977902e-05 
1.9201647e-03 1.9868913e-03 -2.9739438e-05 
1.9746756e-03 2.0490978e-03 -1.8250837e-05 
2.0015810e-03 2.1126238e-03 -3.2589469e-05 
2.0064234e-03 2.1089797e-03 -2.5914536e-05 
1.9536135e-03 2.0594348e-03 -4.3529937e-05 
1.9262149e-03 1.9877998e-03 -2.4903684e-05 
1.8995730e-03 1.9744406e-03 -4.0479325e-05 
1.9541432e-03 2.0173371e-03 -1.7583003e-05 
1.9283559e-03 2.0331659e-03 -5.0160543e-05 
1.9102078e-03 1.9726306e-03 -3.0023752e-05 
1.8983068e-03 1.9841625e-03 -4.7355108e-05 
1.9341732e-03 1.9908568e-03 -1.9606145e-05 
1.9090074e-03 2.0075319e-03 -5.1862520e-05 
2.0074786e-03 2.1238856e-03 -3.4196062e-05 
1.9605863e-03 2.0278078e-03 -1.8091876e-05 
1.8887079e-03 1.9582228e-03 -4.0362065e-05 
1.9348364e-03 2.0338842e-03 -4.4867127e-05 
1.9084943e-03 1.9639484e-03 -2.6341046e-05 
1.9737342e-03 2.0522573e-03 -2.1096581e-05 
1.9403921e-03 1.9967142e-03 -1.7518967e-05 
1.9211058e-03 1.9906440e-03 -3.1053947e-05 
1.8896131e-03 1.9730111e-03 -4.8336013e-05 
1.9834277e-03 2.0851935e-03 -3.2456723e-05 
1.9144868e-03 2.0126530e-03 -5.0161983e-05 
1.9882307e-03 2.0815791e-03 -2.5852847e-05 
1.9207741e-03 1.9708669e-03 -1.9573590e-05 
1.9529659e-03 2.0462780e-03 -3.6225247e-05 