# vtk DataFile Version 4.0
vtk output
ASCII
DATASET UNSTRUCTURED_GRID
POINTS 4496 float
-4.3633327e-01 9.6409470e-01 4.4200001e+01 
-4.3633258e-01 9.6409065e-01 4.4074627e+01 
-3.2152572e-01 9.1279918e-01 4.4200001e+01 
-3.8534868e-01 8.4052670e-01 4.4200001e+01 
-3.9589554e-01 8.5545403e-01 4.4010014e+01 
-3.2616228e-01 9.1667932e-01 4.4011734e+01 
-4.3633190e-01 9.6408653e-01 4.3948376e+01 
-2.1293370e-01 8.4677851e-01 4.4200001e+01 
-2.9042658e-01 7.3813015e-01 4.4200001e+01 
-2.1010752e-01 8.4669363e-01 4.4073502e+01 
-2.8908840e-01 7.3604190e-01 4.4072292e+01 
-3.9589015e-01 8.5505831e-01 4.3883316e+01 
-3.2487559e-01 9.1697580e-01 4.3885036e+01 
-2.0722924e-01 8.4660655e-01 4.3944645e+01 
-1.1981077e-01 7.7773046e-01 4.4200001e+01 
-2.8772619e-01 7.3391593e-01 4.3942276e+01 
-4.3633121e-01 9.6408242e-01 4.3821228e+01 
-1.9739023e-01 6.6468561e-01 4.4200001e+01 
-2.9444304e-01 7.8727525e-01 4.3879974e+01 
-8.7554991e-02 7.5255024e-01 4.4042213e+01 
-1.6445170e-01 6.4084798e-01 4.4041008e+01 
-3.2357255e-01 9.1726828e-01 4.3757431e+01 
-3.9587301e-01 8.5463828e-01 4.3755711e+01 
-2.0429766e-01 8.4651643e-01 4.3813354e+01 
-2.8633916e-01 7.3175091e-01 4.3809875e+01 
-2.6899619e-02 6.8901783e-01 4.4200001e+01 
-1.0567340e-01 7.7152997e-01 4.3875790e+01 
-4.3633053e-01 9.6407831e-01 4.3693161e+01 
-8.7133333e-02 5.9509218e-01 4.4200001e+01 
-1.8777622e-01 6.5475601e-01 4.3873402e+01 
-2.0131156e-01 8.4642249e-01 4.3679543e+01 
-3.2225290e-01 9.1755641e-01 4.3628902e+01 
-3.9584404e-01 8.5419410e-01 4.3627178e+01 
-1.0114321e-03 6.6670936e-01 4.3939713e+01 
-2.8492665e-01 7.2954547e-01 4.3675007e+01 
-1.0131179e-01 7.7015632e-01 4.3743176e+01 
-6.0682178e-02 5.7631296e-01 4.3938457e+01 
3.9444737e-02 6.2338209e-01 4.4053139e+01 
-1.8470748e-01 6.5131217e-01 4.3739727e+01 
-7.0938184e-03 5.4737431e-01 4.4052326e+01 
-4.3632981e-01 9.6407413e-01 4.3564159e+01 
7.6947339e-02 5.8804804e-01 4.4200001e+01 
-1.2721874e-02 6.8194175e-01 4.3817982e+01 
-7.7214435e-02 5.8474159e-01 4.3819649e+01 
4.0195532e-02 5.2425718e-01 4.4200001e+01 
-1.9826968e-01 8.4632379e-01 4.3543118e+01 
-9.6842363e-02 7.6872379e-01 4.3607994e+01 
-3.2091641e-01 9.1783977e-01 4.3499420e+01 
-3.9580306e-01 8.5372573e-01 4.3497700e+01 
-2.8348783e-01 7.2729832e-01 4.3537586e+01 
-1.8155001e-01 6.4778340e-01 4.3603539e+01 
1.5678726e-01 5.2239102e-01 4.4060219e+01 
1.0298219e-02 6.6009766e-01 4.3674484e+01 
1.3250886e-01 4.7546524e-01 4.4058990e+01 
-4.3632913e-01 9.6407002e-01 4.3434200e+01 
-5.0139543e-02 5.6696451e-01 4.3671154e+01 
1.3504514e-01 5.4209155e-01 4.3856747e+01 
1.0361936e-01 4.8715758e-01 4.3855240e+01 
2.0846681e-01 4.8028421e-01 4.4200001e+01 
1.9279444e-01 4.4799727e-01 4.4200001e+01 
-9.2261828e-02 7.6722860e-01 4.3470158e+01 
-1.4701239e-03 6.7547697e-01 4.3552124e+01 
-1.9517080e-01 8.4621930e-01 4.3403992e+01 
-3.1956279e-01 9.1811794e-01 4.3368977e+01 
-3.9574999e-01 8.5323322e-01 4.3367252e+01 
-1.7830023e-01 6.4416617e-01 4.3464752e+01 
-6.7131944e-02 5.7555372e-01 4.3547829e+01 
-2.8202194e-01 7.2500783e-01 4.3397518e+01 
-4.3632844e-01 9.6406585e-01 4.3303261e+01 
1.5138821e-01 5.3037512e-01 4.3609200e+01 
1.2119007e-01 4.7490793e-01 4.3606068e+01 
-8.7566733e-02 7.6566672e-01 4.3329563e+01 
-1.7495437e-01 6.4045686e-01 4.3323273e+01 
-3.1819177e-01 9.1839045e-01 4.3237537e+01 
-3.9568463e-01 8.5271639e-01 4.3235813e+01 
2.2269404e-02 6.5294570e-01 4.3398811e+01 
-1.9201367e-01 8.4610778e-01 4.3262066e+01 
-3.8899176e-02 5.5709696e-01 4.3393635e+01 
-2.8052819e-01 7.2267252e-01 4.3254715e+01 
3.7877345e-01 3.8273901e-01 4.4200001e+01 
-4.3632776e-01 9.6406174e-01 4.3171322e+01 
3.9241230e-01 3.7329337e-01 4.3965439e+01 
1.0283732e-02 6.6872352e-01 4.3271511e+01 
-5.6385640e-02 5.6585240e-01 4.3265472e+01 
-8.2753494e-02 7.6403379e-01 4.3186119e+01 
-4.0345609e-01 8.6371827e-01 4.3104889e+01 
-3.1680310e-01 9.1865683e-01 4.3105087e+01 
-1.7150842e-01 6.3665158e-01 4.3179005e+01 
-1.8879703e-01 8.4598809e-01 4.3117241e+01 
-2.7900568e-01 7.2029078e-01 4.3109074e+01 
4.0610775e-01 3.6380205e-01 4.3729839e+01 
1.6776134e-01 5.1882964e-01 4.3331150e+01 
-4.3632707e-01 9.6405768e-01 4.3038357e+01 
1.4031014e-01 4.6124566e-01 4.3307755e+01 
3.4952711e-02 6.4519531e-01 4.3111935e+01 
-7.7818394e-02 7.6232505e-01 4.3039719e+01 
-3.1539652e-01 9.1891652e-01 4.2971603e+01 
-3.9551663e-01 8.5160977e-01 4.2969879e+01 
-2.6899155e-02 5.4666573e-01 4.3105160e+01 
-1.6795819e-01 6.3274628e-01 4.3031849e+01 
-1.8551964e-01 8.4585863e-01 4.2969406e+01 
4.1985780e-01 3.5425979e-01 4.3493168e+01 
-2.7745360e-01 7.1786088e-01 4.2960495e+01 
-4.3632638e-01 9.6405357e-01 4.2904346e+01 
2.2723136e-02 6.6139150e-01 4.2979332e+01 
-4.4916678e-02 5.5559248e-01 4.2971806e+01 
-3.1397179e-01 9.1916907e-01 4.2837063e+01 
-3.9541367e-01 8.5101974e-01 4.2835335e+01 
-7.2757579e-02 7.6053542e-01 4.2890255e+01 
-1.6429928e-01 6.2873662e-01 4.2881699e+01 
1.8463810e-01 5.0694346e-01 4.3035332e+01 
-1.8218029e-01 8.4571803e-01 4.2818455e+01 
1.5503895e-01 4.5003417e-01 4.3027725e+01 
-2.7587104e-01 7.1538109e-01 4.2808868e+01 
4.3366045e-01 3.4466109e-01 4.3255390e+01 
-4.3632573e-01 9.6404958e-01 4.2769268e+01 
-3.8429454e-01 8.3484912e-01 4.2710606e+01 
-3.1252861e-01 9.1941386e-01 4.2701439e+01 
4.8404284e-02 6.3678014e-01 4.2813030e+01 
-1.4070326e-02 5.3562075e-01 4.2804932e+01 
-6.7567028e-02 7.5865942e-01 4.2737610e+01 
-1.6052702e-01 6.2461799e-01 4.2728443e+01 
-1.7877772e-01 8.4556442e-01 4.2664265e+01 
-4.3632504e-01 9.6404558e-01 4.2633099e+01 
-2.7425703e-01 7.1284944e-01 4.2654083e+01 
4.4751364e-01 3.3500037e-01 4.3016472e+01 
3.5901129e-02 6.5341437e-01 4.2674721e+01 
-3.7959340e-01 8.2794034e-01 4.2568317e+01 
-3.1106678e-01 9.1965032e-01 4.2564713e+01 
-3.2659348e-02 5.4472327e-01 4.2665997e+01 
2.0396979e-01 4.9291667e-01 4.2740131e+01 
-6.2242586e-02 7.5669110e-01 4.2581669e+01 
1.7765003e-01 4.3475360e-01 4.2732578e+01 
-1.5663649e-01 6.2038553e-01 4.2571964e+01 
-4.3632439e-01 9.6404165e-01 4.2495808e+01 
-1.7531081e-01 8.4539592e-01 4.2506718e+01 
-2.7261066e-01 7.1026409e-01 4.2496017e+01 
-3.0958602e-01 9.1987789e-01 4.2426853e+01 
-3.7859210e-01 8.2613736e-01 4.2421188e+01 
4.6141517e-01 3.2527190e-01 4.2776375e+01 
6.2686495e-02 6.2762415e-01 4.2501175e+01 
-3.3570320e-04 5.2390522e-01 4.2492062e+01 
-5.6779940e-02 7.5462401e-01 4.2422298e+01 
-4.3632373e-01 9.6403772e-01 4.2357380e+01 
-1.5262254e-01 6.1603409e-01 4.2412144e+01 
-1.7177837e-01 8.4521037e-01 4.2345684e+01 
-2.7093092e-01 7.0762289e-01 4.2334549e+01 
-3.0808610e-01 9.2009580e-01 4.2287842e+01 
-3.8275370e-01 8.3137155e-01 4.2275047e+01 
4.9876589e-02 6.4471585e-01 4.2356720e+01 
-1.9539909e-02 5.3318781e-01 4.2347118e+01 
-4.3632311e-01 9.6403396e-01 4.2217781e+01 
2.1959943e-01 4.8236796e-01 4.2385345e+01 
-5.1174615e-02 7.5245124e-01 4.2259373e+01 
1.9034323e-01 4.2346162e-01 4.2378918e+01 
-1.4847966e-01 6.1155808e-01 4.2248856e+01 
4.7536272e-01 3.1546980e-01 4.2535065e+01 
-1.6817927e-01 8.4500539e-01 4.2181026e+01 
-2.6921678e-01 7.0492369e-01 4.2169544e+01 
-3.0656675e-01 9.2030340e-01 4.2147648e+01 
-3.9470181e-01 8.4769493e-01 4.2145920e+01 
7.7868804e-02 6.1763972e-01 4.2175373e+01 
-4.3632248e-01 9.6403021e-01 4.2076988e+01 
1.4390758e-02 5.1145434e-01 4.2165581e+01 
-4.5421973e-02 7.5016522e-01 4.2092751e+01 
-1.4420210e-01 6.0695171e-01 4.2081959e+01 
-3.0502778e-01 9.2049998e-01 4.2006248e+01 
-4.0175444e-01 8.5747409e-01 4.2004128e+01 
-1.6451253e-01 8.4477836e-01 4.2012604e+01 
4.8935395e-01 3.0558801e-01 4.2292507e+01 
-2.6746723e-01 7.0216429e-01 4.2000870e+01 
6.4714879e-02 6.3520777e-01 4.2024277e+01 
-4.3632188e-01 9.6402657e-01 4.1934975e+01 
-5.4755262e-03 5.2092212e-01 4.2014156e+01 
-2.3078828e-01 8.1064087e-01 4.1931458e+01 
2.3550548e-01 4.7116494e-01 4.2073269e+01 
2.0610523e-01 4.1123796e-01 4.2066772e+01 
-3.9517213e-02 7.4775779e-01 4.1922287e+01 
-1.3978374e-01 6.0220873e-01 4.1911320e+01 
-3.0346894e-01 9.2068475e-01 4.1863613e+01 
-3.9432141e-01 8.4618556e-01 4.1861881e+01 
-1.6077711e-01 8.4452641e-01 4.1840263e+01 
-2.6568118e-01 6.9934219e-01 4.1828377e+01 
-4.3632129e-01 9.6402299e-01 4.1791718e+01 
5.0338638e-01 2.9562023e-01 4.2048656e+01 
9.4028555e-02 6.0672593e-01 4.1834507e+01 
3.0205652e-02 4.9819478e-01 4.1824417e+01 
-3.8116732e-01 8.2744831e-01 4.1725647e+01 
-3.0189002e-01 9.2085695e-01 4.1719719e+01 
-3.3455357e-02 7.4522001e-01 4.1747829e+01 
-1.3521814e-01 5.9732240e-01 4.1736786e+01 
-4.3632072e-01 9.6401960e-01 4.1647179e+01 
-1.5697217e-01 8.4424627e-01 4.1663853e+01 
-2.6385748e-01 6.9645494e-01 4.1651920e+01 
8.0488607e-02 6.2478805e-01 4.1676235e+01 
2.6870471e-01 4.4547972e-01 4.1752304e+01 
9.6269641e-03 5.0785345e-01 4.1665993e+01 
2.4764967e-01 3.8646612e-01 4.1743168e+01 
-3.0029076e-01 9.2101562e-01 4.1574532e+01 
-3.9388368e-01 8.4456980e-01 4.1572796e+01 
5.1745731e-01 2.8556010e-01 4.1803486e+01 
-2.7231261e-02 7.4254233e-01 4.1569210e+01 
-1.3049847e-01 5.9228569e-01 4.1558201e+01 
-4.3632016e-01 9.6401632e-01 4.1501339e+01 
-1.5309690e-01 8.4393430e-01 4.1483204e+01 
-2.6199502e-01 6.9349992e-01 4.1471333e+01 
-2.9867104e-01 9.2115986e-01 4.1428024e+01 
-3.9364263e-01 8.4372103e-01 4.1426289e+01 
1.1125199e-01 5.9476525e-01 4.1477348e+01 
4.7217656e-02 4.8404291e-01 4.1467384e+01 
-4.3631962e-01 9.6401310e-01 4.1354160e+01 
-2.0839609e-02 7.3971421e-01 4.1386261e+01 
-1.2561750e-01 5.8709091e-01 4.1375404e+01 
5.3156406e-01 2.7540097e-01 4.1556946e+01 
-1.4915068e-01 8.4358656e-01 4.1298138e+01 
-2.9703063e-01 9.2128879e-01 4.1280167e+01 
-3.9338648e-01 8.4284443e-01 4.1278431e+01 
-2.6009262e-01 6.9047421e-01 4.1286449e+01 
2.9365057e-01 4.2687622e-01 4.1391586e+01 
9.7278498e-02 6.1333776e-01 4.1311302e+01 
2.7470219e-01 3.6807936e-01 4.1382729e+01 
2.5872495e-02 4.9389899e-01 4.1301384e+01 
-4.3631911e-01 9.6401012e-01 4.1205620e+01 
-1.4274905e-02 7.3672432e-01 4.1198803e+01 
-1.2056758e-01 5.8173001e-01 4.1188221e+01 
-2.9536936e-01 9.2140132e-01 4.1130928e+01 
[...]
POINT_DATA 4496
FIELD FieldData 5
DISPLACEMENT 3 4496  float
4.8138776e-01 4.4046977e-01 -8.2498407e-03 
4.7861975e-01 4.3767619e-01 -8.1880661e-03 
4.8142672e-01 4.4057605e-01 -9.6455254e-03 
4.8153672e-01 4.4054201e-01 -6.6262307e-03 
4.7732526e-01 4.3629643e-01 -6.6319029e-03 
4.7726619e-01 4.3637627e-01 -9.5367562e-03 
4.7583243e-01 4.3486309e-01 -8.1258519e-03 
4.8148641e-01 4.4068092e-01 -1.0576102e-02 
4.8164731e-01 4.4064480e-01 -6.4449720e-03 
4.7869295e-01 4.3786454e-01 -1.0574424e-02 
4.7883013e-01 4.3780077e-01 -6.3652215e-03 
4.7452858e-01 4.3347350e-01 -6.5608677e-03 
4.7446829e-01 4.3355420e-01 -9.5094265e-03 
4.7584748e-01 4.3499571e-01 -1.0572661e-02 
4.8155385e-01 4.4077399e-01 -1.1097405e-02 
4.7596204e-01 4.3490541e-01 -6.2840674e-03 
4.7302532e-01 4.3203008e-01 -8.0631739e-03 
4.8172054e-01 4.4073889e-01 -6.8664639e-03 
4.7451851e-01 4.3349847e-01 -7.2926581e-03 
4.7809520e-01 4.3729064e-01 -1.1172195e-02 
4.7823328e-01 4.3722886e-01 -6.9856392e-03 
4.7165051e-01 4.3071207e-01 -9.4818305e-03 
4.7171193e-01 4.3063048e-01 -6.4891540e-03 
4.7294828e-01 4.3207267e-01 -1.0570774e-02 
4.7304139e-01 4.3195698e-01 -6.2014381e-03 
4.8164707e-01 4.4087180e-01 -1.1176305e-02 
4.7440052e-01 4.3356276e-01 -1.1112251e-02 
4.7019815e-01 4.2917681e-01 -7.9999892e-03 
4.8178455e-01 4.4084609e-01 -7.7542355e-03 
4.7452033e-01 4.3347177e-01 -6.6972827e-03 
4.6999353e-01 4.2909363e-01 -1.0568711e-02 
4.6881238e-01 4.2784941e-01 -9.4540231e-03 
4.6887505e-01 4.2776704e-01 -6.4167683e-03 
4.7592306e-01 4.3509835e-01 -1.1123819e-02 
4.7006637e-01 4.2895374e-01 -6.1173537e-03 
4.7147346e-01 4.3061173e-01 -1.1112726e-02 
4.7602800e-01 4.3504432e-01 -7.7921576e-03 
4.7847405e-01 4.3766961e-01 -1.1109396e-02 
4.7157270e-01 4.3049663e-01 -6.6227894e-03 
4.7856686e-01 4.3763253e-01 -8.3884019e-03 
4.6735045e-01 4.2630294e-01 -7.9363780e-03 
4.8175368e-01 4.4098169e-01 -1.1224041e-02 
4.7321838e-01 4.3237242e-01 -1.1144117e-02 
4.7339782e-01 4.3238136e-01 -7.5559770e-03 
4.8184606e-01 4.4096759e-01 -8.9916810e-03 
4.6698132e-01 4.2605674e-01 -1.0566412e-02 
4.6848992e-01 4.2760375e-01 -1.1112954e-02 
4.6595359e-01 4.2496604e-01 -9.4259595e-03 
4.6601743e-01 4.2488277e-01 -6.3436250e-03 
4.6703523e-01 4.2589387e-01 -6.0317107e-03 
4.6856987e-01 4.2746577e-01 -6.5471628e-03 
4.7873369e-01 4.3794817e-01 -1.1458399e-02 
4.7007313e-01 4.2919907e-01 -1.1096035e-02 
4.7877380e-01 4.3791267e-01 -9.8765055e-03 
4.6448189e-01 4.2340803e-01 -7.8721689e-03 
4.7013578e-01 4.2909899e-01 -7.6857237e-03 
4.7422066e-01 4.3339121e-01 -1.1316244e-02 
4.7426674e-01 4.3334574e-01 -9.3979845e-03 
4.8186246e-01 4.4111592e-01 -1.1732128e-02 
4.8190853e-01 4.4111115e-01 -1.0666904e-02 
4.6544796e-01 4.2453691e-01 -1.1112886e-02 
4.6735474e-01 4.2645943e-01 -1.1117916e-02 
4.6390975e-01 4.2296004e-01 -1.0563863e-02 
4.6307361e-01 4.2206141e-01 -9.3976203e-03 
4.6313876e-01 4.2197737e-01 -6.2698312e-03 
4.6550995e-01 4.2437741e-01 -6.4705233e-03 
4.6740603e-01 4.2633536e-01 -7.4409069e-03 
4.6394596e-01 4.2277557e-01 -5.9445547e-03 
4.6159199e-01 4.2049187e-01 -7.8075123e-03 
4.6876621e-01 4.2789087e-01 -1.1294751e-02 
4.6877670e-01 4.2781049e-01 -9.3911113e-03 
4.6234560e-01 4.2140931e-01 -1.1112394e-02 
4.6239087e-01 4.2122960e-01 -6.3926461e-03 
4.6017221e-01 4.1913536e-01 -9.3689607e-03 
4.6023861e-01 4.1905051e-01 -6.1952565e-03 
4.6399379e-01 4.2306858e-01 -1.1065505e-02 
4.6077675e-01 4.1980153e-01 -1.0560945e-02 
4.6401906e-01 4.2292762e-01 -7.5784209e-03 
4.6079668e-01 4.1959679e-01 -5.8558336e-03 
4.8194841e-01 4.4127917e-01 -1.3324904e-02 
4.5868042e-01 4.1755390e-01 -7.7424538e-03 
4.7677809e-01 4.3606490e-01 -1.3300590e-02 
4.6116650e-01 4.2021939e-01 -1.1088906e-02 
4.6118298e-01 4.2005658e-01 -7.3242504e-03 
4.5918083e-01 4.1821885e-01 -1.1111424e-02 
4.5733711e-01 4.1612637e-01 -6.2042414e-03 
4.5724881e-01 4.1618714e-01 -9.3401885e-03 
4.5921093e-01 4.1802043e-01 -6.3137710e-03 
4.5758024e-01 4.1657925e-01 -1.0557545e-02 
4.5758545e-01 4.1635576e-01 -5.7653114e-03 
4.7158468e-01 4.3082741e-01 -1.3275922e-02 
4.6263883e-01 4.2171192e-01 -1.1262737e-02 
4.5574674e-01 4.1459382e-01 -7.6769581e-03 
4.6220377e-01 4.2118293e-01 -9.3632005e-03 
4.5766920e-01 4.1669118e-01 -1.1031672e-02 
4.5595145e-01 4.1496351e-01 -1.1109869e-02 
4.5430341e-01 4.1321695e-01 -9.3108863e-03 
4.5437223e-01 4.1313040e-01 -6.0442486e-03 
4.5766243e-01 4.1651496e-01 -7.4703917e-03 
4.5596769e-01 4.1474783e-01 -6.2335418e-03 
4.5431808e-01 4.1329086e-01 -1.0553687e-02 
4.6636784e-01 4.2556602e-01 -1.3250629e-02 
4.5430997e-01 4.1305012e-01 -5.6733550e-03 
4.5279080e-01 4.1161129e-01 -7.6106638e-03 
4.5472547e-01 4.1372496e-01 -1.1056169e-02 
4.5471272e-01 4.1352940e-01 -7.2061457e-03 
4.5133519e-01 4.1022396e-01 -9.2813615e-03 
4.5140558e-01 4.1013691e-01 -5.9678587e-03 
4.5265532e-01 4.1164103e-01 -1.1107627e-02 
4.5265952e-01 4.1140977e-01 -6.1524236e-03 
4.5612103e-01 4.1513962e-01 -1.1225337e-02 
4.5098791e-01 4.0993416e-01 -1.0549163e-02 
4.5603397e-01 4.1496068e-01 -9.3019409e-03 
4.5096847e-01 4.0967828e-01 -5.5796849e-03 
4.6112734e-01 4.2028129e-01 -1.3224862e-02 
4.4981194e-01 4.0860635e-01 -7.5441040e-03 
4.4867334e-01 4.0737548e-01 -5.7931934e-03 
4.4834426e-01 4.0720853e-01 -9.2513394e-03 
4.5108238e-01 4.1005024e-01 -1.0993830e-02 
4.5104951e-01 4.0984511e-01 -7.3619597e-03 
4.4928998e-01 4.0824935e-01 -1.1104679e-02 
4.4928360e-01 4.0800411e-01 -6.0697887e-03 
4.4758788e-01 4.0650761e-01 -1.0544049e-02 
4.4681007e-01 4.0557829e-01 -7.4768565e-03 
4.4755805e-01 4.0623707e-01 -5.4840213e-03 
4.5586288e-01 4.1497263e-01 -1.3198025e-02 
4.4801408e-01 4.0695909e-01 -1.1019019e-02 
4.4554454e-01 4.0421724e-01 -5.6741075e-03 
4.4532999e-01 4.0416974e-01 -9.2207314e-03 
4.4797826e-01 4.0673733e-01 -7.0867371e-03 
4.4962174e-01 4.0858752e-01 -1.1194877e-02 
4.4585350e-01 4.0478587e-01 -1.1101075e-02 
4.4953641e-01 4.0841293e-01 -9.3173673e-03 
4.4583815e-01 4.0452856e-01 -5.9865029e-03 
4.4378468e-01 4.0252674e-01 -7.4086855e-03 
4.4411477e-01 4.0300766e-01 -1.0538444e-02 
4.4407687e-01 4.0272537e-01 -5.3868783e-03 
4.4229165e-01 4.0110731e-01 -9.1898674e-03 
4.4230467e-01 4.0094918e-01 -5.5849580e-03 
4.5057526e-01 4.0964168e-01 -1.3170110e-02 
4.4421497e-01 4.0312767e-01 -1.0951130e-02 
4.4416255e-01 4.0290064e-01 -7.2531211e-03 
4.4234294e-01 4.0124837e-01 -1.1096112e-02 
4.4073525e-01 3.9945179e-01 -7.3403195e-03 
4.4232029e-01 4.0098077e-01 -5.9015518e-03 
4.4056657e-01 3.9943263e-01 -1.0531770e-02 
4.4052231e-01 3.9914027e-01 -5.2878805e-03 
4.3922952e-01 3.9802134e-01 -9.1584465e-03 
4.3908033e-01 3.9769951e-01 -5.5387705e-03 
4.4101316e-01 3.9990264e-01 -1.0976256e-02 
4.4096157e-01 3.9966264e-01 -6.9661499e-03 
4.3766174e-01 3.9635333e-01 -7.2714286e-03 
4.4180977e-01 4.0071249e-01 -1.1130841e-02 
4.3875590e-01 3.9763445e-01 -1.1089982e-02 
4.4175047e-01 4.0056118e-01 -9.1746226e-03 
4.3872795e-01 3.9735875e-01 -5.8156182e-03 
4.4526169e-01 4.0428498e-01 -1.3140653e-02 
4.3694052e-01 3.9577985e-01 -1.0524133e-02 
4.3689173e-01 3.9547935e-01 -5.1870891e-03 
4.3614316e-01 3.9491159e-01 -9.1264145e-03 
4.3621975e-01 3.9482093e-01 -5.5747447e-03 
4.3704736e-01 3.9590469e-01 -1.0902963e-02 
4.3456376e-01 3.9323032e-01 -7.2022155e-03 
4.3698239e-01 3.9566329e-01 -7.1446924e-03 
4.3508965e-01 3.9394152e-01 -1.1082637e-02 
4.3505874e-01 3.9365953e-01 -5.7280376e-03 
4.3303132e-01 3.9177635e-01 -9.0947468e-03 
4.3308917e-01 3.9166853e-01 -5.5680117e-03 
4.3323374e-01 3.9204654e-01 -1.0515254e-02 
4.3992418e-01 3.9890489e-01 -1.3109870e-02 
4.3318313e-01 3.9174059e-01 -5.0840257e-03 
4.3370277e-01 3.9253718e-01 -1.0927391e-02 
4.3144006e-01 3.9008224e-01 -7.1328226e-03 
4.3364266e-01 3.9228657e-01 -6.8448582e-03 
4.3150908e-01 3.9020440e-01 -8.2596494e-03 
4.3494707e-01 3.9379731e-01 -1.1079308e-02 
4.3488726e-01 3.9364502e-01 -9.1000488e-03 
4.3134150e-01 3.9016724e-01 -1.1074000e-02 
4.3130946e-01 3.8988113e-01 -5.6391791e-03 
4.2989436e-01 3.8861668e-01 -9.0623507e-03 
4.2997342e-01 3.8852468e-01 -5.4134661e-03 
4.2944351e-01 3.8823035e-01 -1.0505812e-02 
4.2939290e-01 3.8791975e-01 -4.9786610e-03 
4.2829067e-01 3.8690853e-01 -7.0622526e-03 
4.3456337e-01 3.9350337e-01 -1.3077795e-02 
4.2955774e-01 3.8836053e-01 -1.0848364e-02 
4.2948845e-01 3.8811350e-01 -7.0364969e-03 
4.2699975e-01 3.8552237e-01 -5.2224086e-03 
4.2673150e-01 3.8543144e-01 -9.0288324e-03 
4.2750782e-01 3.8630718e-01 -1.1063959e-02 
4.2747691e-01 3.8601938e-01 -5.5486765e-03 
4.2511523e-01 3.8370916e-01 -6.9905566e-03 
4.2556673e-01 3.8432735e-01 -1.0494845e-02 
4.2551824e-01 3.8401550e-01 -4.8721540e-03 
4.2605975e-01 3.8484016e-01 -1.0871320e-02 
4.2791107e-01 3.8671347e-01 -1.1083524e-02 
4.2599896e-01 3.8458732e-01 -6.7226174e-03 
4.2778987e-01 3.8650921e-01 -9.3103126e-03 
4.2354199e-01 3.8222039e-01 -8.9948373e-03 
4.2362422e-01 3.8212678e-01 -5.2484507e-03 
4.2918035e-01 3.8808239e-01 -1.3043961e-02 
4.2358619e-01 3.8235962e-01 -1.1051913e-02 
4.2355922e-01 3.8207281e-01 -5.4580658e-03 
4.2191395e-01 3.8048524e-01 -6.9186124e-03 
4.2160001e-01 3.8033557e-01 -1.0481918e-02 
4.2155650e-01 3.8002497e-01 -4.7638724e-03 
4.2032680e-01 3.7898386e-01 -8.9600263e-03 
4.2041022e-01 3.7889066e-01 -5.1653613e-03 
4.2172226e-01 3.8047189e-01 -1.0785415e-02 
4.2165831e-01 3.8022938e-01 -6.9287312e-03 
4.1868594e-01 3.7723574e-01 -6.8469797e-03 
4.1957319e-01 3.7832198e-01 -1.1037624e-02 
4.1955248e-01 3.7803829e-01 -5.3649438e-03 
4.2377013e-01 3.8263458e-01 -1.3007104e-02 
4.1754070e-01 3.7625191e-01 -1.0467601e-02 
4.1708454e-01 3.7572202e-01 -8.9254789e-03 
4.1716829e-01 3.7562746e-01 -5.0811311e-03 
4.1750416e-01 3.7594458e-01 -4.6516699e-03 
4.2000583e-01 3.7875694e-01 -1.1043597e-02 
4.1805980e-01 3.7678805e-01 -1.0806119e-02 
4.1988981e-01 3.7856120e-01 -9.3255583e-03 
4.1800955e-01 3.7654433e-01 -6.6000316e-03 
4.1543037e-01 3.7395853e-01 -6.7741969e-03 
4.1546616e-01 3.7418976e-01 -1.1022137e-02 
4.1545299e-01 3.7391233e-01 -5.2704760e-03 
4.1381401e-01 3.7243125e-01 -8.8901725e-03 
4.1390035e-01 3.7233692e-01 -4.9966760e-03 
4.1338453e-01 3.7207183e-01 -1.0451449e-02 
4.1335845e-01 3.7177125e-01 -4.5387992e-03 
4.1833705e-01 3.7716657e-01 -1.2968423e-02 
4.1214696e-01 3.7065414e-01 -6.7014759e-03 
4.1351607e-01 3.7221473e-01 -1.0714198e-02 
4.1346607e-01 3.7198612e-01 -6.8217572e-03 
4.1051620e-01 3.6911500e-01 -8.8543929e-03 
4.1060287e-01 3.6901891e-01 -4.9114116e-03 
4.1125959e-01 3.6996019e-01 -1.1002943e-02 
4.1125908e-01 3.6969191e-01 -5.1755747e-03 
4.0883550e-01 3.6732280e-01 -6.6269170e-03 
4.0912908e-01 3.6779299e-01 -1.0433187e-02 
4.0911478e-01 3.6750239e-01 -4.4227350e-03 
4.1172436e-01 3.7042665e-01 -1.1002762e-02 
4.1162384e-01 3.7024984e-01 -9.3497681e-03 
4.0926418e-01 3.6793885e-01 -1.0672595e-02 
4.1288117e-01 3.7167811e-01 -1.2927955e-02 
4.0718994e-01 3.6577013e-01 -8.8163679e-03 
4.0727872e-01 3.6567521e-01 -4.8263208e-03 
4.0922591e-01 3.6772299e-01 -6.7687226e-03 
4.0695289e-01 3.6563003e-01 -1.0982161e-02 
4.0696523e-01 3.6537391e-01 -5.0783362e-03 
4.0549624e-01 3.6396539e-01 -6.5531489e-03 
4.0476900e-01 3.6341187e-01 -1.0412887e-02 
4.0477213e-01 3.6313426e-01 -4.3046703e-03 
4.0383607e-01 3.6240074e-01 -8.7785507e-03 
4.0392485e-01 3.6230370e-01 -4.7399215e-03 
4.0491009e-01 3.6356130e-01 -1.0629713e-02 
4.0347484e-01 3.6191890e-01 -6.2192571e-03 
4.0488645e-01 3.6336094e-01 -6.7166300e-03 
4.0212843e-01 3.6058041e-01 -6.4773597e-03 
4.0739655e-01 3.6616090e-01 -1.2883643e-02 
4.0493268e-01 3.6359534e-01 -1.0889265e-02 
4.0253967e-01 3.6119631e-01 -1.0955747e-02 
4.0491050e-01 3.6348850e-01 -9.0090856e-03 
4.0257016e-01 3.6095595e-01 -4.9799844e-03 
4.0045267e-01 3.5900125e-01 -8.7388251e-03 
4.0054318e-01 3.5890564e-01 -4.6526785e-03 
4.0030399e-01 3.5892668e-01 -1.0387224e-02 
4.0032396e-01 3.5866442e-01 -4.1869180e-03 
3.9873192e-01 3.5716829e-01 -6.4028217e-03 
4.0044892e-01 3.5907868e-01 -1.0584051e-02 
4.0044227e-01 3.5889727e-01 -6.6644428e-03 
3.9801854e-01 3.5665563e-01 -1.0928268e-02 
3.9704087e-01 3.5557458e-01 -8.6997589e-03 
3.9713201e-01 3.5547850e-01 -4.5647142e-03 
3.9806849e-01 3.5643420e-01 -4.8795016e-03 
4.0188900e-01 3.6062661e-01 -1.2838770e-02 
3.9572680e-01 3.5433128e-01 -1.0362548e-02 
3.9530519e-01 3.5372627e-01 -6.3268528e-03 
3.9885712e-01 3.5744092e-01 -9.6842069e-03 
3.9879230e-01 3.5744026e-01 -1.1123829e-02 
3.9576912e-01 3.5408953e-01 -4.0629376e-03 
3.9587674e-01 3.5448706e-01 -1.0534389e-02 
3.9588925e-01 3.5432559e-01 -6.6132727e-03 
3.9359763e-01 3.5211876e-01 -8.6602112e-03 
3.9368999e-01 3.5202211e-01 -4.4761696e-03 
3.9338315e-01 3.5200259e-01 -1.0897211e-02 
3.9345735e-01 3.5180366e-01 -4.7782464e-03 
3.9184675e-01 3.5025409e-01 -6.2501510e-03 
3.9635843e-01 3.5507086e-01 -1.2787773e-02 
3.9103213e-01 3.4962103e-01 -1.0334851e-02 
3.9110148e-01 3.4940320e-01 -3.9361999e-03 
3.9012614e-01 3.4863672e-01 -8.6164949e-03 
3.9021888e-01 3.4853825e-01 -4.3885559e-03 
3.9331523e-01 3.5187721e-01 -9.6215252e-03 
3.9325246e-01 3.5187826e-01 -1.1071807e-02 
3.9111638e-01 3.4970936e-01 -1.0480432e-02 
3.9111236e-01 3.4953207e-01 -6.5321238e-03 
3.8910025e-01 3.4751979e-01 -6.6699665e-03 
3.8836351e-01 3.4675992e-01 -6.1716810e-03 
3.8867098e-01 3.4727588e-01 -1.0863936e-02 
3.8879749e-01 3.4712639e-01 -4.6434081e-03 
3.8665560e-01 3.4515479e-01 -8.5401954e-03 
3.8675037e-01 3.4505969e-01 -4.3126182e-03 
3.8630217e-01 3.4487891e-01 -1.0299929e-02 
3.9080462e-01 3.4949559e-01 -1.2733807e-02 
3.8644874e-01 3.4473628e-01 -3.8138961e-03 
3.8490805e-01 3.4329516e-01 -6.0965228e-03 
3.8628241e-01 3.4486192e-01 -1.0437292e-02 
3.8641030e-01 3.4481126e-01 -6.3369614e-03 
3.8776514e-01 3.4630996e-01 -9.5673008e-03 
3.8770455e-01 3.4631258e-01 -1.1020275e-02 
3.8449088e-01 3.4289739e-01 -6.5692556e-03 
3.8321334e-01 3.4170476e-01 -8.4638186e-03 
3.8398403e-01 3.4257734e-01 -1.0830107e-02 
3.8330662e-01 3.4160730e-01 -4.2369580e-03 
3.8418540e-01 3.4250161e-01 -4.4939667e-03 
3.8147962e-01 3.3985832e-01 -6.0193003e-03 
3.8166025e-01 3.4022820e-01 -1.0263438e-02 
3.8187495e-01 3.4015214e-01 -3.6950354e-03 
3.8525438e-01 3.4392840e-01 -1.2676548e-02 
3.8164112e-01 3.4021211e-01 -1.0405178e-02 
3.8184077e-01 3.4022605e-01 -6.1381995e-03 
3.7979555e-01 3.3827952e-01 -8.3883572e-03 
3.7988999e-01 3.3818474e-01 -4.1625402e-03 
3.8206208e-01 3.4064397e-01 -1.0645883e-02 
3.8215438e-01 3.4065202e-01 -8.6884880e-03 
3.7938339e-01 3.3797055e-01 -1.0794836e-02 
3.7964901e-01 3.3795363e-01 -4.3479670e-03 
3.7879732e-01 3.3719295e-01 -6.4403014e-03 
3.7807736e-01 3.3645129e-01 -5.9443028e-03 
3.7737742e-01 3.3564663e-01 -3.5773090e-03 
3.7710065e-01 3.3566362e-01 -1.0225123e-02 
3.7640589e-01 3.3488414e-01 -8.3113583e-03 
3.7650058e-01 3.3479166e-01 -4.0897755e-03 
3.7734467e-01 3.3571985e-01 -5.9445016e-03 
3.7708181e-01 3.3564860e-01 -1.0374366e-02 
3.7971959e-01 3.3838439e-01 -1.2618897e-02 
3.7470129e-01 3.3307219e-01 -5.8712605e-03 
3.7518755e-01 3.3348417e-01 -4.2057345e-03 
3.7486339e-01 3.3344892e-01 -1.0758462e-02 
3.7664467e-01 3.3523440e-01 -1.0913927e-02 
3.7627098e-01 3.3476567e-01 -8.7316930e-03 
3.7304202e-01 3.3151782e-01 -8.2351826e-03 
3.7307289e-01 3.3136320e-01 -4.0514884e-03 
3.7295297e-01 3.3121571e-01 -3.4578301e-03 
3.7262365e-01 3.3118507e-01 -1.0189652e-02 
3.7168816e-01 3.3008382e-01 -6.4170947e-03 
3.7134993e-01 3.2971826e-01 -5.7960013e-03 
3.7292004e-01 3.3128688e-01 -5.7574618e-03 
3.7204224e-01 3.3060187e-01 -1.0221237e-02 
3.7079588e-01 3.2909021e-01 -4.0702512e-03 
3.7042502e-01 3.2900906e-01 -1.0720028e-02 
3.6970115e-01 3.2817453e-01 -8.1571052e-03 
3.7420547e-01 3.3286792e-01 -1.2560222e-02 
3.6979499e-01 3.2808369e-01 -3.9438424e-03 
3.6919531e-01 3.2758233e-01 -6.1705736e-03 
3.7123045e-01 3.2972392e-01 -8.6532887e-03 
3.6802378e-01 3.2639295e-01 -5.7230364e-03 
3.6859620e-01 3.2686120e-01 -3.3496080e-03 
3.6822486e-01 3.2678610e-01 -1.0146895e-02 
3.7113774e-01 3.2972786e-01 -1.0855341e-02 
3.6856803e-01 3.2693291e-01 -5.5728168e-03 
3.6820686e-01 3.2677275e-01 -1.0306633e-02 
3.6638612e-01 3.2486081e-01 -8.0816951e-03 
3.6648056e-01 3.2477075e-01 -3.8720737e-03 
3.6647630e-01 3.2477167e-01 -3.9343764e-03 
3.6606416e-01 3.2465073e-01 -1.0678701e-02 
3.6512041e-01 3.2348624e-01 -5.5354419e-03 
3.6472082e-01 3.2309318e-01 -5.6504416e-03 
3.6870086e-01 3.2736450e-01 -1.2495516e-02 
3.6431104e-01 3.2257929e-01 -3.2362370e-03 
3.6390123e-01 3.2246754e-01 -1.0106320e-02 
3.6622921e-01 3.2469764e-01 -7.9590986e-03 
3.6587685e-01 3.2444522e-01 -1.0260463e-02 
3.6309373e-01 3.2157302e-01 -8.0048572e-03 
3.6428455e-01 3.2264709e-01 -5.3942115e-03 
3.6284226e-01 3.2112798e-01 -3.6015844e-03 
3.6388379e-01 3.2245541e-01 -1.0274403e-02 
3.6144030e-01 3.1981730e-01 -5.5801054e-03 
3.6222300e-01 3.2052058e-01 -3.7996545e-03 
3.6177754e-01 3.2037061e-01 -1.0636362e-02 
3.5992128e-01 3.1822062e-01 -3.7322303e-03 
3.5977486e-01 3.1824785e-01 -7.6949066e-03 
3.6009234e-01 3.1836593e-01 -3.1264124e-03 
3.5964820e-01 3.1822363e-01 -1.0063951e-02 
3.6320975e-01 3.2187635e-01 -1.2426283e-02 
3.5883027e-01 3.1725839e-01 -6.6180970e-03 
3.6006773e-01 3.1843501e-01 -5.2207978e-03 
3.5963225e-01 3.1821138e-01 -1.0241714e-02 
3.5818499e-01 3.1656858e-01 -5.5112196e-03 
3.5803568e-01 3.1634331e-01 -3.6736028e-03 
3.6016455e-01 3.1876433e-01 -1.0725694e-02 
3.6021572e-01 3.1875315e-01 -9.2817536e-03 
3.5710433e-01 3.1540141e-01 -3.4671705e-03 
3.5755986e-01 3.1615928e-01 -1.0590964e-02 
3.5687441e-01 3.1537646e-01 -8.1551922e-03 
3.5899797e-01 3.1743589e-01 -6.8630436e-03 
3.5841423e-01 3.1698722e-01 -1.0024576e-02 
3.5593680e-01 3.1422067e-01 -3.0213154e-03 
3.5547128e-01 3.1405556e-01 -1.0011107e-02 
3.5495433e-01 3.1334510e-01 -5.4414966e-03 
3.5591498e-01 3.1428707e-01 -5.0524389e-03 
3.5545552e-01 3.1404483e-01 -1.0207762e-02 
3.5773405e-01 3.1641027e-01 -1.2350333e-02 
3.5351980e-01 3.1182405e-01 -3.3173049e-03 
3.5331681e-01 3.1183043e-01 -8.1228334e-03 
3.5391337e-01 3.1222758e-01 -3.5489062e-03 
3.5341662e-01 3.1202984e-01 -1.0546330e-02 
3.5174713e-01 3.1014666e-01 -5.3713508e-03 
3.5470390e-01 3.1331819e-01 -1.0654154e-02 
3.5475251e-01 3.1330565e-01 -9.2150280e-03 
3.5184711e-01 3.1013945e-01 -2.9131377e-03 
3.5136202e-01 3.0996197e-01 -9.9646412e-03 
3.5182661e-01 3.1020689e-01 -4.8876884e-03 
3.4988233e-01 3.0840284e-01 -7.9858638e-03 
3.5094038e-01 3.0954880e-01 -1.0247569e-02 
3.5156119e-01 3.1001541e-01 -6.6181934e-03 
3.4945482e-01 3.0777013e-01 -3.2238783e-03 
3.4985310e-01 3.0817893e-01 -3.4267073e-03 
3.4934184e-01 3.0796871e-01 -1.0496167e-02 
3.4856054e-01 3.0697230e-01 -5.3026527e-03 
3.5227954e-01 3.1096971e-01 -1.2269201e-02 
3.4759074e-01 3.0604616e-01 -6.2536024e-03 
3.4781641e-01 3.0612585e-01 -2.8109348e-03 
3.4918857e-01 3.0779070e-01 -9.8845437e-03 
3.4704107e-01 3.0555212e-01 -7.4394853e-03 
3.4732091e-01 3.0593389e-01 -9.9147493e-03 
3.4708604e-01 3.0542350e-01 -3.4633668e-03 
3.4779844e-01 3.0619138e-01 -4.7270539e-03 
3.4926194e-01 3.0789301e-01 -1.0577869e-02 
3.4930912e-01 3.0787918e-01 -9.1426875e-03 
3.4730685e-01 3.0592579e-01 -1.0134196e-02 
3.4572101e-01 3.0404657e-01 -2.9896414e-03 
3.4539801e-01 3.0382282e-01 -5.2356245e-03 
3.4585235e-01 3.0419496e-01 -3.3041353e-03 
3.4533250e-01 3.0397588e-01 -1.0446019e-02 
3.4441388e-01 3.0276585e-01 -3.4428621e-03 
3.4383768e-01 3.0236930e-01 -7.5382041e-03 
3.4384638e-01 3.0217016e-01 -2.7091526e-03 
3.4334338e-01 3.0197620e-01 -9.8643592e-03 
3.4684068e-01 3.0555072e-01 -1.2186884e-02 
3.4382927e-01 3.0223694e-01 -4.5707696e-03 
3.4225681e-01 3.0069658e-01 -5.1675169e-03 
3.4293526e-01 3.0157915e-01 -1.0165042e-02 
3.4169769e-01 3.0004647e-01 -3.0092648e-03 
3.4352994e-01 3.0202368e-01 -6.6209105e-03 
3.4191057e-01 3.0027062e-01 -3.1883453e-03 
3.4152326e-01 2.9998043e-01 -5.4892749e-03 
3.4090027e-01 2.9946536e-01 -7.9157185e-03 
3.4383473e-01 3.0249065e-01 -1.0499671e-02 
3.4138709e-01 3.0004972e-01 -1.0394533e-02 
3.4388009e-01 3.0247587e-01 -9.0695610e-03 
3.3993322e-01 2.9827899e-01 -2.6126388e-03 
3.4124741e-01 2.9988262e-01 -9.7214794e-03 