# vtk DataFile Version 4.0
vtk output
ASCII
DATASET UNSTRUCTURED_GRID
POINTS 4496 float
-4.3633327e-01 9.6409470e-01 4.4200001e+01 
-4.3633258e-01 9.6409065e-01 4.4074627e+01 
-3.2152572e-01 9.1279918e-01 4.4200001e+01 
-3.8534868e-01 8.4052670e-01 4.4200001e+01 
-3.9589554e-01 8.5545403e-01 4.4010014e+01 
-3.2616228e-01 9.1667932e-01 4.4011734e+01 
-4.3633190e-01 9.6408653e-01 4.3948376e+01 
-2.1293370e-01 8.4677851e-01 4.4200001e+01 
-2.9042658e-01 7.3813015e-01 4.4200001e+01 
-2.1010752e-01 8.4669363e-01 4.4073502e+01 
-2.8908840e-01 7.3604190e-01 4.4072292e+01 
-3.9589015e-01 8.5505831e-01 4.3883316e+01 
-3.2487559e-01 9.1697580e-01 4.3885036e+01 
-2.0722924e-01 8.4660655e-01 4.3944645e+01 
-1.1981077e-01 7.7773046e-01 4.4200001e+01 
-2.8772619e-01 7.3391593e-01 4.3942276e+01 
-4.3633121e-01 9.6408242e-01 4.3821228e+01 
-1.9739023e-01 6.6468561e-01 4.4200001e+01 
-2.9444304e-01 7.8727525e-01 4.3879974e+01 
-8.7554991e-02 7.5255024e-01 4.4042213e+01 
-1.6445170e-01 6.4084798e-01 4.4041008e+01 
-3.2357255e-01 9.1726828e-01 4.3757431e+01 
-3.9587301e-01 8.5463828e-01 4.3755711e+01 
-2.0429766e-01 8.4651643e-01 4.3813354e+01 
-2.8633916e-01 7.3175091e-01 4.3809875e+01 
-2.6899619e-02 6.8901783e-01 4.4200001e+01 
-1.0567340e-01 7.7152997e-01 4.3875790e+01 
-4.3633053e-01 9.6407831e-01 4.3693161e+01 
-8.7133333e-02 5.9509218e-01 4.4200001e+01 
-1.8777622e-01 6.5475601e-01 4.3873402e+01 
-2.0131156e-01 8.4642249e-01 4.3679543e+01 
-3.2225290e-01 9.1755641e-01 4.3628902e+01 
-3.9584404e-01 8.5419410e-01 4.3627178e+01 
-1.0114321e-03 6.6670936e-01 4.3939713e+01 
-2.8492665e-01 7.2954547e-01 4.3675007e+01 
-1.0131179e-01 7.7015632e-01 4.3743176e+01 
-6.0682178e-02 5.7631296e-01 4.3938457e+01 
3.9444737e-02 6.2338209e-01 4.4053139e+01 
-1.8470748e-01 6.5131217e-01 4.3739727e+01 
-7.0938184e-03 5.4737431e-01 4.4052326e+01 
-4.3632981e-01 9.6407413e-01 4.3564159e+01 
7.6947339e-02 5.8804804e-01 4.4200001e+01 
-1.2721874e-02 6.8194175e-01 4.3817982e+01 
-7.7214435e-02 5.8474159e-01 4.3819649e+01 
4.0195532e-02 5.2425718e-01 4.4200001e+01 
-1.9826968e-01 8.4632379e-01 4.3543118e+01 
-9.6842363e-02 7.6872379e-01 4.3607994e+01 
-3.2091641e-01 9.1783977e-01 4.3499420e+01 
-3.9580306e-01 8.5372573e-01 4.3497700e+01 
-2.8348783e-01 7.2729832e-01 4.3537586e+01 
-1.8155001e-01 6.4778340e-01 4.3603539e+01 
1.5678726e-01 5.2239102e-01 4.4060219e+01 
1.0298219e-02 6.6009766e-01 4.3674484e+01 
1.3250886e-01 4.7546524e-01 4.4058990e+01 
-4.3632913e-01 9.6407002e-01 4.3434200e+01 
-5.0139543e-02 5.6696451e-01 4.3671154e+01 
1.3504514e-01 5.4209155e-01 4.3856747e+01 
1.0361936e-01 4.8715758e-01 4.3855240e+01 
2.0846681e-01 4.8028421e-01 4.4200001e+01 
1.9279444e-01 4.4799727e-01 4.4200001e+01 
-9.2261828e-02 7.6722860e-01 4.3470158e+01 
-1.4701239e-03 6.7547697e-01 4.3552124e+01 
-1.9517080e-01 8.4621930e-01 4.3403992e+01 
-3.1956279e-01 9.1811794e-01 4.3368977e+01 
-3.9574999e-01 8.5323322e-01 4.3367252e+01 
-1.7830023e-01 6.4416617e-01 4.3464752e+01 
-6.7131944e-02 5.7555372e-01 4.3547829e+01 
-2.8202194e-01 7.2500783e-01 4.3397518e+01 
-4.3632844e-01 9.6406585e-01 4.3303261e+01 
1.5138821e-01 5.3037512e-01 4.3609200e+01 
1.2119007e-01 4.7490793e-01 4.3606068e+01 
-8.7566733e-02 7.6566672e-01 4.3329563e+01 
-1.7495437e-01 6.4045686e-01 4.3323273e+01 
-3.1819177e-01 9.1839045e-01 4.3237537e+01 
-3.9568463e-01 8.5271639e-01 4.3235813e+01 
2.2269404e-02 6.5294570e-01 4.3398811e+01 
-1.9201367e-01 8.4610778e-01 4.3262066e+01 
-3.8899176e-02 5.5709696e-01 4.3393635e+01 
-2.8052819e-01 7.2267252e-01 4.3254715e+01 
3.7877345e-01 3.8273901e-01 4.4200001e+01 
-4.3632776e-01 9.6406174e-01 4.3171322e+01 
3.9241230e-01 3.7329337e-01 4.3965439e+01 
1.0283732e-02 6.6872352e-01 4.3271511e+01 
-5.6385640e-02 5.6585240e-01 4.3265472e+01 
-8.2753494e-02 7.6403379e-01 4.3186119e+01 
-4.0345609e-01 8.6371827e-01 4.3104889e+01 
-3.1680310e-01 9.1865683e-01 4.3105087e+01 
-1.7150842e-01 6.3665158e-01 4.3179005e+01 
-1.8879703e-01 8.4598809e-01 4.3117241e+01 
-2.7900568e-01 7.2029078e-01 4.3109074e+01 
4.0610775e-01 3.6380205e-01 4.3729839e+01 
1.6776134e-01 5.1882964e-01 4.3331150e+01 
-4.3632707e-01 9.6405768e-01 4.3038357e+01 
1.4031014e-01 4.6124566e-01 4.3307755e+01 
3.4952711e-02 6.4519531e-01 4.3111935e+01 
-7.7818394e-02 7.6232505e-01 4.3039719e+01 
-3.1539652e-01 9.1891652e-01 4.2971603e+01 
-3.9551663e-01 8.5160977e-01 4.2969879e+01 
-2.6899155e-02 5.4666573e-01 4.3105160e+01 
-1.6795819e-01 6.3274628e-01 4.3031849e+01 
-1.8551964e-01 8.4585863e-01 4.2969406e+01 
4.1985780e-01 3.5425979e-01 4.3493168e+01 
-2.7745360e-01 7.1786088e-01 4.2960495e+01 
-4.3632638e-01 9.6405357e-01 4.2904346e+01 
2.2723136e-02 6.6139150e-01 4.2979332e+01 
-4.4916678e-02 5.5559248e-01 4.2971806e+01 
-3.1397179e-01 9.1916907e-01 4.2837063e+01 
-3.9541367e-01 8.5101974e-01 4.2835335e+01 
-7.2757579e-02 7.6053542e-01 4.2890255e+01 
-1.6429928e-01 6.2873662e-01 4.2881699e+01 
1.8463810e-01 5.0694346e-01 4.3035332e+01 
-1.8218029e-01 8.4571803e-01 4.2818455e+01 
1.5503895e-01 4.5003417e-01 4.3027725e+01 
-2.7587104e-01 7.1538109e-01 4.2808868e+01 
4.3366045e-01 3.4466109e-01 4.3255390e+01 
-4.3632573e-01 9.6404958e-01 4.2769268e+01 
-3.8429454e-01 8.3484912e-01 4.2710606e+01 
-3.1252861e-01 9.1941386e-01 4.2701439e+01 
4.8404284e-02 6.3678014e-01 4.2813030e+01 
-1.4070326e-02 5.3562075e-01 4.2804932e+01 
-6.7567028e-02 7.5865942e-01 4.2737610e+01 
-1.6052702e-01 6.2461799e-01 4.2728443e+01 
-1.7877772e-01 8.4556442e-01 4.2664265e+01 
-4.3632504e-01 9.6404558e-01 4.2633099e+01 
-2.7425703e-01 7.1284944e-01 4.2654083e+01 
4.4751364e-01 3.3500037e-01 4.3016472e+01 
3.5901129e-02 6.5341437e-01 4.2674721e+01 
-3.7959340e-01 8.2794034e-01 4.2568317e+01 
-3.1106678e-01 9.1965032e-01 4.2564713e+01 
-3.2659348e-02 5.4472327e-01 4.2665997e+01 
2.0396979e-01 4.9291667e-01 4.2740131e+01 
-6.2242586e-02 7.5669110e-01 4.2581669e+01 
1.7765003e-01 4.3475360e-01 4.2732578e+01 
-1.5663649e-01 6.2038553e-01 4.2571964e+01 
-4.3632439e-01 9.6404165e-01 4.2495808e+01 
-1.7531081e-01 8.4539592e-01 4.2506718e+01 
-2.7261066e-01 7.1026409e-01 4.2496017e+01 
-3.0958602e-01 9.1987789e-01 4.2426853e+01 
-3.7859210e-01 8.2613736e-01 4.2421188e+01 
4.6141517e-01 3.2527190e-01 4.2776375e+01 
6.2686495e-02 6.2762415e-01 4.2501175e+01 
-3.3570320e-04 5.2390522e-01 4.2492062e+01 
-5.6779940e-02 7.5462401e-01 4.2422298e+01 
-4.3632373e-01 9.6403772e-01 4.2357380e+01 
-1.5262254e-01 6.1603409e-01 4.2412144e+01 
-1.7177837e-01 8.4521037e-01 4.2345684e+01 
-2.7093092e-01 7.0762289e-01 4.2334549e+01 
-3.0808610e-01 9.2009580e-01 4.2287842e+01 
-3.8275370e-01 8.3137155e-01 4.2275047e+01 
4.9876589e-02 6.4471585e-01 4.2356720e+01 
-1.9539909e-02 5.3318781e-01 4.2347118e+01 
-4.3632311e-01 9.6403396e-01 4.2217781e+01 
2.1959943e-01 4.8236796e-01 4.2385345e+01 
-5.1174615e-02 7.5245124e-01 4.2259373e+01 
1.9034323e-01 4.2346162e-01 4.2378918e+01 
-1.4847966e-01 6.1155808e-01 4.2248856e+01 
4.7536272e-01 3.1546980e-01 4.2535065e+01 
-1.6817927e-01 8.4500539e-01 4.2181026e+01 
-2.6921678e-01 7.0492369e-01 4.2169544e+01 
-3.0656675e-01 9.2030340e-01 4.2147648e+01 
-3.9470181e-01 8.4769493e-01 4.2145920e+01 
7.7868804e-02 6.1763972e-01 4.2175373e+01 
-4.3632248e-01 9.6403021e-01 4.2076988e+01 
1.4390758e-02 5.1145434e-01 4.2165581e+01 
-4.5421973e-02 7.5016522e-01 4.2092751e+01 
-1.4420210e-01 6.0695171e-01 4.2081959e+01 
-3.0502778e-01 9.2049998e-01 4.2006248e+01 
-4.0175444e-01 8.5747409e-01 4.2004128e+01 
-1.6451253e-01 8.4477836e-01 4.2012604e+01 
4.8935395e-01 3.0558801e-01 4.2292507e+01 
-2.6746723e-01 7.0216429e-01 4.2000870e+01 
6.4714879e-02 6.3520777e-01 4.2024277e+01 
-4.3632188e-01 9.6402657e-01 4.1934975e+01 
-5.4755262e-03 5.2092212e-01 4.2014156e+01 
-2.3078828e-01 8.1064087e-01 4.1931458e+01 
2.3550548e-01 4.7116494e-01 4.2073269e+01 
2.0610523e-01 4.1123796e-01 4.2066772e+01 
-3.9517213e-02 7.4775779e-01 4.1922287e+01 
-1.3978374e-01 6.0220873e-01 4.1911320e+01 
-3.0346894e-01 9.2068475e-01 4.1863613e+01 
-3.9432141e-01 8.4618556e-01 4.1861881e+01 
-1.6077711e-01 8.4452641e-01 4.1840263e+01 
-2.6568118e-01 6.9934219e-01 4.1828377e+01 
-4.3632129e-01 9.6402299e-01 4.1791718e+01 
5.0338638e-01 2.9562023e-01 4.2048656e+01 
9.4028555e-02 6.0672593e-01 4.1834507e+01 
3.0205652e-02 4.9819478e-01 4.1824417e+01 
-3.8116732e-01 8.2744831e-01 4.1725647e+01 
-3.0189002e-01 9.2085695e-01 4.1719719e+01 
-3.3455357e-02 7.4522001e-01 4.1747829e+01 
-1.3521814e-01 5.9732240e-01 4.1736786e+01 
-4.3632072e-01 9.6401960e-01 4.1647179e+01 
-1.5697217e-01 8.4424627e-01 4.1663853e+01 
-2.6385748e-01 6.9645494e-01 4.1651920e+01 
8.0488607e-02 6.2478805e-01 4.1676235e+01 
2.6870471e-01 4.4547972e-01 4.1752304e+01 
9.6269641e-03 5.0785345e-01 4.1665993e+01 
2.4764967e-01 3.8646612e-01 4.1743168e+01 
-3.0029076e-01 9.2101562e-01 4.1574532e+01 
-3.9388368e-01 8.4456980e-01 4.1572796e+01 
5.1745731e-01 2.8556010e-01 4.1803486e+01 
-2.7231261e-02 7.4254233e-01 4.1569210e+01 
-1.3049847e-01 5.9228569e-01 4.1558201e+01 
-4.3632016e-01 9.6401632e-01 4.1501339e+01 
-1.5309690e-01 8.4393430e-01 4.1483204e+01 
-2.6199502e-01 6.9349992e-01 4.1471333e+01 
-2.9867104e-01 9.2115986e-01 4.1428024e+01 
-3.9364263e-01 8.4372103e-01 4.1426289e+01 
1.1125199e-01 5.9476525e-01 4.1477348e+01 
4.7217656e-02 4.8404291e-01 4.1467384e+01 
-4.3631962e-01 9.6401310e-01 4.1354160e+01 
-2.0839609e-02 7.3971421e-01 4.1386261e+01 
-1.2561750e-01 5.8709091e-01 4.1375404e+01 
5.3156406e-01 2.7540097e-01 4.1556946e+01 
-1.4915068e-01 8.4358656e-01 4.1298138e+01 
-2.9703063e-01 9.2128879e-01 4.1280167e+01 
-3.9338648e-01 8.4284443e-01 4.1278431e+01 
-2.6009262e-01 6.9047421e-01 4.1286449e+01 
2.9365057e-01 4.2687622e-01 4.1391586e+01 
9.7278498e-02 6.1333776e-01 4.1311302e+01 
2.7470219e-01 3.6807936e-01 4.1382729e+01 
2.5872495e-02 4.9389899e-01 4.1301384e+01 
-4.3631911e-01 9.6401012e-01 4.1205620e+01 
-1.4274905e-02 7.3672432e-01 4.1198803e+01 
-1.2056758e-01 5.8173001e-01 4.1188221e+01 
-2.9536936e-01 9.2140132e-01 4.1130928e+01 
[...]
POINT_DATA 4496
FIELD FieldData 5
DISPLACEMENT 3 4496  float
1.3867171e-02 1.3979079e-02 -1.4177678e-04 
1.3810374e-02 1.3910466e-02 -1.4174249e-04 
1.3883512e-02 1.4015678e-02 -1.6574677e-04 
1.3906574e-02 1.3995351e-02 -9.7276898e-05 
1.3815741e-02 1.3888016e-02 -1.0061748e-04 
1.3796984e-02 1.3911164e-02 -1.6571893e-04 
1.3753188e-02 1.3841388e-02 -1.4170681e-04 
1.3904558e-02 1.4050310e-02 -1.7884804e-04 
1.3939227e-02 1.4025629e-02 -8.4272076e-05 
1.3847267e-02 1.3981974e-02 -1.8004964e-04 
1.3882026e-02 1.3956157e-02 -8.3702711e-05 
1.3758475e-02 1.3818695e-02 -1.0037017e-04 
1.3739502e-02 1.3842245e-02 -1.6643186e-04 
1.3788918e-02 1.3912359e-02 -1.8127057e-04 
1.3926573e-02 1.4080016e-02 -1.8328488e-04 
1.3823790e-02 1.3885441e-02 -8.3127910e-05 
1.3695607e-02 1.3771833e-02 -1.4166921e-04 
1.3962650e-02 1.4055308e-02 -8.6256099e-05 
1.3778553e-02 1.3849196e-02 -1.0926357e-04 
1.3863103e-02 1.4003933e-02 -1.8408976e-04 
1.3898197e-02 1.3978780e-02 -8.8102541e-05 
1.3681629e-02 1.3772848e-02 -1.6713445e-04 
1.3700812e-02 1.3748900e-02 -1.0012129e-04 
1.3729475e-02 1.3841435e-02 -1.8251203e-04 
1.3764489e-02 1.3813432e-02 -8.2541723e-05 
1.3954869e-02 1.4109670e-02 -1.7686631e-04 
1.3781647e-02 1.3907043e-02 -1.8621274e-04 
1.3637649e-02 1.3701797e-02 -1.4162551e-04 
1.3984853e-02 1.4090487e-02 -9.8147750e-05 
1.3817801e-02 1.3879602e-02 -8.5100743e-05 
1.3668909e-02 1.3769161e-02 -1.8377004e-04 
1.3623358e-02 1.3702963e-02 -1.6784787e-04 
1.3642759e-02 1.3678632e-02 -9.9872079e-05 
1.3844022e-02 1.3975413e-02 -1.7633183e-04 
1.3704083e-02 1.3740098e-02 -8.1949147e-05 
1.3722008e-02 1.3835834e-02 -1.8739791e-04 
1.3872289e-02 1.3955727e-02 -9.9792545e-05 
1.3909244e-02 1.4050438e-02 -1.7099224e-04 
1.3758309e-02 1.3807419e-02 -8.4579682e-05 
1.3933140e-02 1.4035170e-02 -1.0827466e-04 
1.3579274e-02 1.3631297e-02 -1.4158337e-04 
1.3987091e-02 1.4142841e-02 -1.6869311e-04 
1.3783996e-02 1.3905016e-02 -1.7932696e-04 
1.3815741e-02 1.3885409e-02 -9.6882432e-05 
1.4007468e-02 1.4131131e-02 -1.1709769e-04 
1.3607174e-02 1.3695482e-02 -1.8504538e-04 
1.3661233e-02 1.3763259e-02 -1.8859499e-04 
1.3564682e-02 1.3632598e-02 -1.6855456e-04 
1.3584299e-02 1.3607871e-02 -9.9597280e-05 
1.3642555e-02 1.3665398e-02 -8.1347345e-05 
1.3697715e-02 1.3733898e-02 -8.4051251e-05 
1.3944672e-02 1.4091774e-02 -1.6892514e-04 
1.3725920e-02 1.3833763e-02 -1.7777429e-04 
1.3959098e-02 1.4083365e-02 -1.3220860e-04 
1.3520502e-02 1.3560280e-02 -1.4153145e-04 
1.3754076e-02 1.3812727e-02 -9.9394412e-05 
1.3846129e-02 1.3973358e-02 -1.6980412e-04 
1.3862965e-02 1.3962531e-02 -1.2545385e-04 
1.4021501e-02 1.4184865e-02 -1.6934449e-04 
1.4031815e-02 1.4179871e-02 -1.4454231e-04 
1.3599291e-02 1.3689271e-02 -1.8980948e-04 
1.3665587e-02 1.3763018e-02 -1.8081359e-04 
1.3544245e-02 1.3620375e-02 -1.8634077e-04 
1.3505583e-02 1.3561727e-02 -1.6927278e-04 
1.3525430e-02 1.3536621e-02 -9.9328841e-05 
1.3635977e-02 1.3659007e-02 -8.3527295e-05 
1.3695431e-02 1.3739812e-02 -9.6376687e-05 
1.3579844e-02 1.3589283e-02 -8.0741011e-05 
1.3461303e-02 1.3488778e-02 -1.4148485e-04 
1.3737607e-02 1.3842906e-02 -1.7074442e-04 
1.3753841e-02 1.3831603e-02 -1.2665251e-04 
1.3536140e-02 1.3613837e-02 -1.9102378e-04 
1.3573050e-02 1.3582687e-02 -8.2991923e-05 
1.3446079e-02 1.3490368e-02 -1.6997955e-04 
1.3466154e-02 1.3464874e-02 -9.9056662e-05 
1.3603285e-02 1.3686616e-02 -1.7920630e-04 
1.3480077e-02 1.3543772e-02 -1.8764632e-04 
1.3631398e-02 1.3664378e-02 -9.9037330e-05 
1.3515926e-02 1.3511713e-02 -8.0124126e-05 
1.4052643e-02 1.4239259e-02 -1.9317208e-04 
1.3401682e-02 1.3416761e-02 -1.4143907e-04 
1.3949241e-02 1.4115011e-02 -1.9412514e-04 
1.3540621e-02 1.3613126e-02 -1.8235596e-04 
1.3570524e-02 1.3588702e-02 -9.5895339e-05 
1.3471749e-02 1.3536897e-02 -1.9225363e-04 
1.3403455e-02 1.3390942e-02 -1.0153036e-04 
1.3386118e-02 1.3418468e-02 -1.7070198e-04 
1.3508921e-02 1.3504918e-02 -8.2459985e-05 
1.3414635e-02 1.3465653e-02 -1.8896822e-04 
1.3450784e-02 1.3432661e-02 -7.9485217e-05 
1.3845343e-02 1.3990155e-02 -1.9507823e-04 
1.3615186e-02 1.3695747e-02 -1.7178527e-04 
1.3341621e-02 1.3344247e-02 -1.4139092e-04 
1.3622850e-02 1.3674240e-02 -1.2778431e-04 
1.3475813e-02 1.3533602e-02 -1.8062412e-04 
1.3406071e-02 1.3458416e-02 -1.9348362e-04 
1.3325769e-02 1.3346078e-02 -1.7140026e-04 
1.3346286e-02 1.3319818e-02 -9.8472905e-05 
1.3503954e-02 1.3510335e-02 -9.8725883e-05 
1.3443516e-02 1.3425627e-02 -8.1916252e-05 
1.3347871e-02 1.3385936e-02 -1.9029739e-04 
1.3740934e-02 1.3864614e-02 -1.9603223e-04 
1.3384328e-02 1.3352048e-02 -7.8851954e-05 
1.3281166e-02 1.3271185e-02 -1.4132276e-04 
1.3410672e-02 1.3457193e-02 -1.8387940e-04 
1.3440707e-02 1.3431733e-02 -9.5455456e-05 
1.3264963e-02 1.3273153e-02 -1.7212422e-04 
1.3285722e-02 1.3246531e-02 -9.8184188e-05 
1.3339065e-02 1.3378328e-02 -1.9472608e-04 
1.3376828e-02 1.3344797e-02 -8.1384314e-05 
1.3484839e-02 1.3539018e-02 -1.7287054e-04 
1.3279737e-02 1.3304576e-02 -1.9163729e-04 
1.3499388e-02 1.3525518e-02 -1.2828397e-04 
1.3316570e-02 1.3269873e-02 -7.8218618e-05 
1.3636026e-02 1.3738481e-02 -1.9702193e-04 
1.3220231e-02 1.3197655e-02 -1.4125682e-04 
1.3234511e-02 1.3182128e-02 -9.4354749e-05 
1.3203730e-02 1.3199738e-02 -1.7280967e-04 
1.3343184e-02 1.3374359e-02 -1.8201789e-04 
1.3371427e-02 1.3350259e-02 -9.8484830e-05 
1.3270671e-02 1.3296607e-02 -1.9596993e-04 
1.3308776e-02 1.3262360e-02 -8.0834106e-05 
1.3210219e-02 1.3221581e-02 -1.9298500e-04 
1.3158877e-02 1.3123586e-02 -1.4117596e-04 
1.3247419e-02 1.3186011e-02 -7.7565586e-05 
1.3530581e-02 1.3611685e-02 -1.9798137e-04 
1.3275402e-02 1.3294851e-02 -1.8537424e-04 
1.3172517e-02 1.3106198e-02 -9.2660652e-05 
1.3142053e-02 1.3125771e-02 -1.7347523e-04 
1.3305648e-02 1.3268556e-02 -9.5071278e-05 
1.3355480e-02 1.3383475e-02 -1.7390648e-04 
1.3200898e-02 1.3213190e-02 -1.9722982e-04 
1.3370360e-02 1.3371082e-02 -1.3015525e-04 
1.3239361e-02 1.3178283e-02 -8.0333695e-05 
1.3097093e-02 1.3048969e-02 -1.4106647e-04 
1.3139227e-02 1.3136845e-02 -1.9436145e-04 
1.3176849e-02 1.3100510e-02 -7.6914112e-05 
1.3079893e-02 1.3051282e-02 -1.7417640e-04 
1.3106768e-02 1.3026593e-02 -9.2112903e-05 
1.3424678e-02 1.3484381e-02 -1.9893232e-04 
1.3205063e-02 1.3208502e-02 -1.8336195e-04 
1.3233489e-02 1.3183782e-02 -9.8308010e-05 
1.3129649e-02 1.3128039e-02 -1.9844733e-04 
1.3034821e-02 1.2973865e-02 -1.4097826e-04 
1.3168496e-02 1.3092505e-02 -7.9800375e-05 
1.3066749e-02 1.3050326e-02 -1.9571971e-04 
1.3104821e-02 1.3013277e-02 -7.6251687e-05 
1.3017306e-02 1.2976278e-02 -1.7485399e-04 
1.3039331e-02 1.2946021e-02 -9.3066701e-05 
1.3134476e-02 1.3125680e-02 -1.8681055e-04 
1.3165054e-02 1.3098799e-02 -9.4733659e-05 
1.2972111e-02 1.2898248e-02 -1.4087798e-04 
1.3198167e-02 1.3194398e-02 -1.7516980e-04 
1.3056899e-02 1.3041104e-02 -1.9966405e-04 
1.3213692e-02 1.3181761e-02 -1.2976845e-04 
1.3096165e-02 1.3005015e-02 -7.9274098e-05 
1.3318258e-02 1.3356427e-02 -1.9986146e-04 
1.2992723e-02 1.2961978e-02 -1.9708638e-04 
1.3031268e-02 1.2924257e-02 -7.5582881e-05 
1.2954287e-02 1.2900778e-02 -1.7550951e-04 
1.2976190e-02 1.2872376e-02 -9.6527234e-05 
1.3061114e-02 1.3035667e-02 -1.8465197e-04 
1.2908934e-02 1.2822068e-02 -1.4078431e-04 
1.3089821e-02 1.3010567e-02 -9.8252982e-05 
1.2982600e-02 1.2952328e-02 -2.0088071e-04 
1.3022352e-02 1.2915733e-02 -7.8728168e-05 
1.2890711e-02 1.2824650e-02 -1.7621569e-04 
1.2909390e-02 1.2793443e-02 -9.8630269e-05 
1.2917098e-02 1.2871745e-02 -1.9845848e-04 
1.3211340e-02 1.3227884e-02 -2.0079818e-04 
1.2956219e-02 1.2833450e-02 -7.4874362e-05 
1.2987562e-02 1.2949387e-02 -1.8817642e-04 
1.2845186e-02 1.2745309e-02 -1.4069967e-04 
1.3018553e-02 1.2922134e-02 -9.4498042e-05 
1.2891291e-02 1.2807244e-02 -1.5007921e-04 
1.3060619e-02 1.3029136e-02 -1.7622100e-04 
1.3076327e-02 1.3016483e-02 -1.3030690e-04 
1.2906709e-02 1.2861680e-02 -2.0210176e-04 
1.2946959e-02 1.2824633e-02 -7.8180296e-05 
1.2826635e-02 1.2747947e-02 -1.7688842e-04 
1.2848984e-02 1.2718834e-02 -9.5832045e-05 
1.2839810e-02 1.2779614e-02 -1.9984372e-04 
1.2879566e-02 1.2740690e-02 -7.4160962e-05 
1.2780982e-02 1.2667964e-02 -1.4057405e-04 
1.3103994e-02 1.3098909e-02 -2.0174368e-04 
1.2910946e-02 1.2855443e-02 -1.8587789e-04 
1.2940036e-02 1.2830216e-02 -9.8295503e-05 
1.2793731e-02 1.2649395e-02 -9.1522961e-05 
1.2762145e-02 1.2670750e-02 -1.7751490e-04 
1.2829119e-02 1.2769016e-02 -2.0331734e-04 
1.2869914e-02 1.2731579e-02 -7.7622964e-05 
1.2716330e-02 1.2590055e-02 -1.4041414e-04 
1.2760817e-02 1.2685406e-02 -2.0123180e-04 
1.2801168e-02 1.2645961e-02 -7.3466414e-05 
1.2834194e-02 1.2765458e-02 -1.8945694e-04 
1.2923759e-02 1.2864809e-02 -1.7722220e-04 
1.2865681e-02 1.2738073e-02 -9.4354502e-05 
1.2937870e-02 1.2853356e-02 -1.3569697e-04 
1.2697103e-02 1.2592959e-02 -1.7818283e-04 
1.2719963e-02 1.2563160e-02 -9.5032723e-05 
1.2996291e-02 1.2969640e-02 -2.0267228e-04 
1.2749812e-02 1.2674310e-02 -2.0452456e-04 
1.2791201e-02 1.2636588e-02 -7.7115270e-05 
1.2651160e-02 1.2511654e-02 -1.4027130e-04 
1.2680029e-02 1.2589126e-02 -2.0258369e-04 
1.2721056e-02 1.2549252e-02 -7.2779010e-05 
1.2631612e-02 1.2514625e-02 -1.7879941e-04 
1.2654680e-02 1.2484527e-02 -9.4678573e-05 
1.2754084e-02 1.2667290e-02 -1.8700007e-04 
1.2783680e-02 1.2642263e-02 -9.8415156e-05 
1.2585449e-02 1.2432740e-02 -1.4014254e-04 
1.2668713e-02 1.2577531e-02 -2.0568346e-04 
1.2710732e-02 1.2539559e-02 -7.6560034e-05 
1.2888080e-02 1.2839728e-02 -2.0353547e-04 
1.2597409e-02 1.2490736e-02 -2.0391878e-04 
1.2565580e-02 1.2435778e-02 -1.7940586e-04 
1.2588855e-02 1.2405299e-02 -9.4244468e-05 
1.2639184e-02 1.2450449e-02 -7.2009374e-05 
1.2767052e-02 1.2676879e-02 -1.7837928e-04 
1.2673922e-02 1.2573317e-02 -1.9065887e-04 
1.2781103e-02 1.2666308e-02 -1.3805731e-04 
1.2706087e-02 1.2546172e-02 -9.4255149e-05 
1.2519274e-02 1.2353130e-02 -1.3999110e-04 
1.2585795e-02 1.2478596e-02 -2.0685975e-04 
1.2628417e-02 1.2440425e-02 -7.6013748e-05 
1.2499027e-02 1.2356238e-02 -1.8004913e-04 
1.2522570e-02 1.2325468e-02 -9.3852876e-05 
1.2512906e-02 1.2390084e-02 -2.0531379e-04 
1.2555426e-02 1.2349534e-02 -7.1271919e-05 
1.2779403e-02 1.2709388e-02 -2.0442995e-04 
1.2452508e-02 1.2273028e-02 -1.3983999e-04 
1.2590062e-02 1.2470686e-02 -1.8802646e-04 
1.2620229e-02 1.2446100e-02 -9.8701923e-05 
1.2431928e-02 1.2276167e-02 -1.8068227e-04 
1.2455695e-02 1.2245063e-02 -9.3406808e-05 
1.2500904e-02 1.2377336e-02 -2.0799362e-04 
1.2544274e-02 1.2339155e-02 -7.5483695e-05 
1.2385265e-02 1.2192247e-02 -1.3966027e-04 
1.2426420e-02 1.2287159e-02 -2.0660741e-04 
1.2469708e-02 1.2246351e-02 -7.0493923e-05 
1.2603126e-02 1.2480533e-02 -1.7961286e-04 
1.2617249e-02 1.2471122e-02 -1.4068499e-04 
1.2505173e-02 1.2368989e-02 -1.8843521e-04 
1.2670342e-02 1.2578727e-02 -2.0530784e-04 
1.2364346e-02 1.2195479e-02 -1.8124480e-04 
1.2388329e-02 1.2164114e-02 -9.3033515e-05 
1.2535661e-02 1.2344860e-02 -9.8847100e-05 
1.2414079e-02 1.2273842e-02 -2.0907886e-04 
1.2458129e-02 1.2235612e-02 -7.4963515e-05 
1.2317418e-02 1.2111016e-02 -1.3948917e-04 
1.2337815e-02 1.2181828e-02 -2.0794333e-04 
1.2382095e-02 1.2140922e-02 -6.9728354e-05 
1.2296193e-02 1.2114337e-02 -1.8178817e-04 
1.2320366e-02 1.2082577e-02 -9.2561408e-05 
1.2418307e-02 1.2264992e-02 -1.8885270e-04 
1.2339166e-02 1.2119887e-02 -1.1443158e-04 
1.2449173e-02 1.2241390e-02 -9.9109624e-05 
1.2249065e-02 1.2029079e-02 -1.3927341e-04 
1.2560707e-02 1.2447301e-02 -2.0612929e-04 
1.2464379e-02 1.2314311e-02 -1.8032374e-04 
1.2325178e-02 1.2167945e-02 -2.1007005e-04 
1.2479889e-02 1.2303602e-02 -1.3679685e-04 
1.2370026e-02 1.2129889e-02 -7.4426142e-05 
1.2227447e-02 1.2032431e-02 -1.8228918e-04 
1.2251849e-02 1.2000417e-02 -9.2114700e-05 
1.2247286e-02 1.2074204e-02 -2.0913227e-04 
1.2292336e-02 1.2033218e-02 -6.9031354e-05 
1.2180136e-02 1.1946668e-02 -1.3909410e-04 
1.2329412e-02 1.2158646e-02 -1.8926147e-04 
1.2360658e-02 1.2135620e-02 -9.9352153e-05 
1.2234190e-02 1.2059643e-02 -2.1110928e-04 
1.2158240e-02 1.1950019e-02 -1.8282361e-04 
1.2182862e-02 1.1917723e-02 -9.1643909e-05 
1.2279798e-02 1.2021767e-02 -7.3852934e-05 
1.2450499e-02 1.2315627e-02 -2.0701853e-04 
1.2154423e-02 1.1964009e-02 -2.1044454e-04 
1.2110671e-02 1.1863616e-02 -1.3886915e-04 
1.2367665e-02 1.2178013e-02 -1.5000245e-04 
1.2355939e-02 1.2185946e-02 -1.8278947e-04 
1.2200472e-02 1.1923066e-02 -6.8173307e-05 
1.2238360e-02 1.2049867e-02 -1.8955668e-04 
1.2269991e-02 1.2027455e-02 -9.9693912e-05 
1.2088402e-02 1.1866982e-02 -1.8336972e-04 
1.2113227e-02 1.1834414e-02 -9.1163529e-05 
1.2140934e-02 1.1948750e-02 -2.1211362e-04 
1.2187453e-02 1.1911187e-02 -7.3309806e-05 
1.2040552e-02 1.1779920e-02 -1.3862659e-04 
1.2339923e-02 1.2183432e-02 -2.0776621e-04 
1.2059209e-02 1.1851143e-02 -2.1173559e-04 
1.2106365e-02 1.1810339e-02 -6.7302310e-05 
1.2017936e-02 1.1783353e-02 -1.8384089e-04 
1.2042941e-02 1.1750487e-02 -9.0708840e-05 
1.2257002e-02 1.2045931e-02 -1.5052101e-04 
1.2245352e-02 1.2053994e-02 -1.8348289e-04 
1.2143238e-02 1.1936456e-02 -1.8994087e-04 
1.2174466e-02 1.1913432e-02 -9.9605451e-05 
1.2038221e-02 1.1772752e-02 -1.3217713e-04 
1.1969983e-02 1.1695722e-02 -1.3836415e-04 
1.2045501e-02 1.1835575e-02 -2.1327352e-04 
1.2093266e-02 1.1798354e-02 -7.2396557e-05 
1.1947316e-02 1.1699130e-02 -1.8368455e-04 
1.1972274e-02 1.1666451e-02 -9.0662383e-05 
1.1963406e-02 1.1737622e-02 -2.1281070e-04 
1.2228966e-02 1.2051031e-02 -2.0847494e-04 
1.2012525e-02 1.1698257e-02 -6.6545785e-05 
1.1899954e-02 1.1612460e-02 -1.3815692e-04 
1.2044257e-02 1.1819241e-02 -1.9133359e-04 
1.2078688e-02 1.1798001e-02 -9.7668984e-05 
1.2146342e-02 1.1914181e-02 -1.5113420e-04 
1.2134792e-02 1.1922301e-02 -1.8412463e-04 
1.1944077e-02 1.1660740e-02 -1.3216662e-04 
1.1877361e-02 1.1615839e-02 -1.8346854e-04 
1.1949669e-02 1.1722242e-02 -2.1465142e-04 
1.1902184e-02 1.1583163e-02 -9.0538240e-05 
1.1999670e-02 1.1686302e-02 -7.1260503e-05 
1.1830589e-02 1.1529818e-02 -1.3785865e-04 
1.1869452e-02 1.1626435e-02 -2.1385102e-04 
1.1920276e-02 1.1588322e-02 -6.5791355e-05 
1.2118021e-02 1.1918799e-02 -2.0919599e-04 
1.1948268e-02 1.1706122e-02 -1.9312445e-04 
1.1985407e-02 1.1685710e-02 -9.5683194e-05 
1.1807827e-02 1.1533141e-02 -1.8335626e-04 
1.1832617e-02 1.1500646e-02 -9.0432324e-05 
1.2007298e-02 1.1769332e-02 -1.8275488e-04 
1.2024743e-02 1.1760433e-02 -1.3778562e-04 
1.1855663e-02 1.1611221e-02 -2.1598264e-04 
1.1907619e-02 1.1576219e-02 -7.0118695e-05 
1.1828343e-02 1.1523143e-02 -1.3182491e-04 
1.1761687e-02 1.1448011e-02 -1.3761343e-04 
1.1829568e-02 1.1480286e-02 -6.4973603e-05 
1.1777102e-02 1.1517283e-02 -2.1481772e-04 
1.1738939e-02 1.1451230e-02 -1.8316128e-04 
1.1763591e-02 1.1418910e-02 -9.0312882e-05 
1.1893641e-02 1.1575420e-02 -9.3721552e-05 
1.1854050e-02 1.1595198e-02 -1.9490515e-04 
1.2007309e-02 1.1787182e-02 -2.0991226e-04 
1.1693211e-02 1.1366887e-02 -1.3738294e-04 
1.1817024e-02 1.1468137e-02 -6.8988680e-05 
1.1763288e-02 1.1502357e-02 -2.1725452e-04 
1.1914229e-02 1.1660373e-02 -1.8556741e-04 
1.1908430e-02 1.1623766e-02 -1.4029992e-04 
1.1670455e-02 1.1370000e-02 -1.8291597e-04 
1.1692302e-02 1.1335269e-02 -9.1319831e-05 
1.1740368e-02 1.1374091e-02 -6.4049811e-05 
1.1686391e-02 1.1410396e-02 -2.1582050e-04 
1.1676878e-02 1.1346700e-02 -1.3625014e-04 
1.1625281e-02 1.1286275e-02 -1.3705970e-04 
1.1803218e-02 1.1467075e-02 -9.1928981e-05 
1.1767005e-02 1.1488043e-02 -1.8937228e-04 
1.1727792e-02 1.1362000e-02 -6.8002351e-05 
1.1672571e-02 1.1395468e-02 -2.1845182e-04 
1.1602473e-02 1.1289348e-02 -1.8262610e-04 
1.1897010e-02 1.1656371e-02 -2.1067202e-04 
1.1626929e-02 1.1257233e-02 -8.9982947e-05 
1.1646296e-02 1.1303934e-02 -1.2619852e-04 
1.1807387e-02 1.1503902e-02 -1.4034865e-04 
1.1557822e-02 1.1206474e-02 -1.3678140e-04 
1.1652304e-02 1.1269843e-02 -6.3388383e-05 
1.1597211e-02 1.1305260e-02 -2.1662464e-04 
1.1804233e-02 1.1530099e-02 -1.8613972e-04 
1.1714255e-02 1.1360690e-02 -9.0038091e-05 
1.1670593e-02 1.1379597e-02 -1.9811335e-04 
1.1534989e-02 1.1209470e-02 -1.8242393e-04 
1.1559391e-02 1.1177492e-02 -8.9838766e-05 
1.1640007e-02 1.1257703e-02 -6.6895496e-05 
1.1583417e-02 1.1290543e-02 -2.1950406e-04 
1.1550010e-02 1.1185474e-02 -1.1881389e-04 
1.1490805e-02 1.1127321e-02 -1.3651447e-04 
1.1786849e-02 1.1525976e-02 -2.1145670e-04 
1.1565728e-02 1.1167260e-02 -6.2515275e-05 
1.1509486e-02 1.1202119e-02 -2.1741352e-04 
1.1700154e-02 1.1369994e-02 -1.2993939e-04 
1.1671903e-02 1.1371639e-02 -1.8378120e-04 
1.1467957e-02 1.1130211e-02 -1.8214194e-04 
1.1626690e-02 1.1256093e-02 -8.8258304e-05 
1.1493717e-02 1.1095868e-02 -8.3125437e-05 
1.1581293e-02 1.1274938e-02 -1.9969644e-04 
1.1424163e-02 1.1048745e-02 -1.3623991e-04 
1.1553506e-02 1.1155088e-02 -6.5801316e-05 
1.1495701e-02 1.1187617e-02 -2.2048347e-04 
1.1425532e-02 1.1019890e-02 -8.9518275e-05 
1.1398574e-02 1.1045614e-02 -1.7762887e-04 
1.1480439e-02 1.1066406e-02 -6.1721126e-05 
1.1423176e-02 1.1100776e-02 -2.1816144e-04 
1.1676869e-02 1.1395896e-02 -2.1199520e-04 
1.1416920e-02 1.1045785e-02 -1.4483975e-04 
1.1540438e-02 1.1153354e-02 -8.6547829e-05 
1.1493342e-02 1.1172062e-02 -2.0121767e-04 
1.1357991e-02 1.0970938e-02 -1.3599351e-04 
1.1468204e-02 1.1054328e-02 -6.4840111e-05 
1.1584885e-02 1.1270837e-02 -1.8729822e-04 
1.1595898e-02 1.1262645e-02 -1.5445006e-04 
1.1376964e-02 1.0958399e-02 -8.2518447e-05 
1.1409359e-02 1.1086360e-02 -2.2136646e-04 
1.1343480e-02 1.0986799e-02 -1.8694640e-04 
1.1543236e-02 1.1173992e-02 -1.1339349e-04 
1.1507390e-02 1.1178495e-02 -1.8589030e-04 
1.1396218e-02 1.0967251e-02 -6.1016883e-05 
1.1338441e-02 1.1001200e-02 -2.1864261e-04 
1.1292364e-02 1.0893747e-02 -1.3565039e-04 
1.1455406e-02 1.1052289e-02 -8.4823470e-05 
1.1406969e-02 1.1071173e-02 -2.0260396e-04 
1.1566713e-02 1.1265701e-02 -2.1257171e-04 
1.1307681e-02 1.0875439e-02 -7.9576086e-05 
1.1271296e-02 1.0902450e-02 -1.8750233e-04 
1.1384213e-02 1.0955058e-02 -6.3836509e-05 
1.1324533e-02 1.0987023e-02 -2.2227198e-04 
1.1227165e-02 1.0817071e-02 -1.3532834e-04 
1.1475264e-02 1.1141707e-02 -1.8774768e-04 
1.1486119e-02 1.1133553e-02 -1.5500026e-04 
1.1313308e-02 1.0869550e-02 -6.0156774e-05 
1.1254967e-02 1.0903525e-02 -2.1921958e-04 
1.1371525e-02 1.0952810e-02 -8.3207720e-05 
1.1200756e-02 1.0818874e-02 -1.8615513e-04 
1.1306943e-02 1.0956789e-02 -2.0764796e-04 
1.1392004e-02 1.0994913e-02 -1.1132503e-04 
1.1224652e-02 1.0778011e-02 -7.9191603e-05 
1.1301294e-02 1.0857434e-02 -6.2895844e-05 
1.1241083e-02 1.0889324e-02 -2.2304709e-04 
1.1162238e-02 1.0741036e-02 -1.3499631e-04 
1.1456924e-02 1.1136207e-02 -2.1302083e-04 
1.1186235e-02 1.0773492e-02 -1.4207186e-04 
1.1231513e-02 1.0773565e-02 -5.9324113e-05 
1.1324015e-02 1.0962415e-02 -1.8556752e-04 
1.1139296e-02 1.0741122e-02 -1.7697658e-04 
1.1172707e-02 1.0807239e-02 -2.1974977e-04 
1.1163183e-02 1.0712468e-02 -8.8753768e-05 
1.1288841e-02 1.0854985e-02 -8.1588230e-05 
1.1365923e-02 1.1013184e-02 -1.8804394e-04 
1.1376670e-02 1.1005061e-02 -1.5534516e-04 
1.1238218e-02 1.0874372e-02 -2.0525965e-04 
1.1158296e-02 1.0696614e-02 -7.2739858e-05 
1.1097766e-02 1.0665632e-02 -1.3468871e-04 
1.1219591e-02 1.0761409e-02 -6.1846680e-05 
1.1158805e-02 1.0793278e-02 -2.2375348e-04 
1.1107306e-02 1.0647906e-02 -8.9648842e-05 
1.1075064e-02 1.0667833e-02 -1.7981470e-04 
1.1150806e-02 1.0678887e-02 -5.8541260e-05 
1.1091683e-02 1.0712774e-02 -2.2011365e-04 
1.1347252e-02 1.1007348e-02 -2.1347275e-04 
1.1207184e-02 1.0758667e-02 -8.0025369e-05 
1.1033729e-02 1.0590748e-02 -1.3435625e-04 
1.1141363e-02 1.0763878e-02 -2.0989387e-04 
1.1068140e-02 1.0594190e-02 -7.6872020e-05 
1.1231659e-02 1.0808437e-02 -1.1355106e-04 
1.1138872e-02 1.0666759e-02 -6.0891889e-05 
1.1093067e-02 1.0650434e-02 -1.1957361e-04 
1.1018286e-02 1.0606550e-02 -1.8775406e-04 
1.1256748e-02 1.0885153e-02 -1.8846513e-04 
1.1077802e-02 1.0698805e-02 -2.2442389e-04 
1.1267384e-02 1.0877075e-02 -1.5582494e-04 
1.1071089e-02 1.0585821e-02 -5.7858011e-05 
1.1157952e-02 1.0768346e-02 -1.8666577e-04 