# vtk DataFile Version 4.0
vtk output
ASCII
DATASET UNSTRUCTURED_GRID
POINTS 4496 float
-4.3633327e-01 9.6409470e-01 4.4200001e+01 
-4.3633258e-01 9.6409065e-01 4.4074627e+01 
-3.2152572e-01 9.1279918e-01 4.4200001e+01 
-3.8534868e-01 8.4052670e-01 4.4200001e+01 
-3.9589554e-01 8.5545403e-01 4.4010014e+01 
-3.2616228e-01 9.1667932e-01 4.4011734e+01 
-4.3633190e-01 9.6408653e-01 4.3948376e+01 
-2.1293370e-01 8.4677851e-01 4.4200001e+01 
-2.9042658e-01 7.3813015e-01 4.4200001e+01 
-2.1010752e-01 8.4669363e-01 4.4073502e+01 
-2.8908840e-01 7.3604190e-01 4.4072292e+01 
-3.9589015e-01 8.5505831e-01 4.3883316e+01 
-3.2487559e-01 9.1697580e-01 4.3885036e+01 
-2.0722924e-01 8.4660655e-01 4.3944645e+01 
-1.1981077e-01 7.7773046e-01 4.4200001e+01 
-2.8772619e-01 7.3391593e-01 4.3942276e+01 
-4.3633121e-01 9.6408242e-01 4.3821228e+01 
-1.9739023e-01 6.6468561e-01 4.4200001e+01 
-2.9444304e-01 7.8727525e-01 4.3879974e+01 
-8.7554991e-02 7.5255024e-01 4.4042213e+01 
-1.6445170e-01 6.4084798e-01 4.4041008e+01 
-3.2357255e-01 9.1726828e-01 4.3757431e+01 
-3.9587301e-01 8.5463828e-01 4.3755711e+01 
-2.0429766e-01 8.4651643e-01 4.3813354e+01 
-2.8633916e-01 7.3175091e-01 4.3809875e+01 
-2.6899619e-02 6.8901783e-01 4.4200001e+01 
-1.0567340e-01 7.7152997e-01 4.3875790e+01 
-4.3633053e-01 9.6407831e-01 4.3693161e+01 
-8.7133333e-02 5.9509218e-01 4.4200001e+01 
-1.8777622e-01 6.5475601e-01 4.3873402e+01 
-2.0131156e-01 8.4642249e-01 4.3679543e+01 
-3.2225290e-01 9.1755641e-01 4.3628902e+01 
-3.9584404e-01 8.5419410e-01 4.3627178e+01 
-1.0114321e-03 6.6670936e-01 4.3939713e+01 
-2.8492665e-01 7.2954547e-01 4.3675007e+01 
-1.0131179e-01 7.7015632e-01 4.3743176e+01 
-6.0682178e-02 5.7631296e-01 4.3938457e+01 
3.9444737e-02 6.2338209e-01 4.4053139e+01 
-1.8470748e-01 6.5131217e-01 4.3739727e+01 
-7.0938184e-03 5.4737431e-01 4.4052326e+01 
-4.3632981e-01 9.6407413e-01 4.3564159e+01 
7.6947339e-02 5.8804804e-01 4.4200001e+01 
-1.2721874e-02 6.8194175e-01 4.3817982e+01 
-7.7214435e-02 5.8474159e-01 4.3819649e+01 
4.0195532e-02 5.2425718e-01 4.4200001e+01 
-1.9826968e-01 8.4632379e-01 4.3543118e+01 
-9.6842363e-02 7.6872379e-01 4.3607994e+01 
-3.2091641e-01 9.1783977e-01 4.3499420e+01 
-3.9580306e-01 8.5372573e-01 4.3497700e+01 
-2.8348783e-01 7.2729832e-01 4.3537586e+01 
-1.8155001e-01 6.4778340e-01 4.3603539e+01 
1.5678726e-01 5.2239102e-01 4.4060219e+01 
1.0298219e-02 6.6009766e-01 4.3674484e+01 
1.3250886e-01 4.7546524e-01 4.4058990e+01 
-4.3632913e-01 9.6407002e-01 4.3434200e+01 
-5.0139543e-02 5.6696451e-01 4.3671154e+01 
1.3504514e-01 5.4209155e-01 4.3856747e+01 
1.0361936e-01 4.8715758e-01 4.3855240e+01 
2.0846681e-01 4.8028421e-01 4.4200001e+01 
1.9279444e-01 4.4799727e-01 4.4200001e+01 
-9.2261828e-02 7.6722860e-01 4.3470158e+01 
-1.4701239e-03 6.7547697e-01 4.3552124e+01 
-1.9517080e-01 8.4621930e-01 4.3403992e+01 
-3.1956279e-01 9.1811794e-01 4.3368977e+01 
-3.9574999e-01 8.5323322e-01 4.3367252e+01 
-1.7830023e-01 6.4416617e-01 4.3464752e+01 
-6.7131944e-02 5.7555372e-01 4.3547829e+01 
-2.8202194e-01 7.2500783e-01 4.3397518e+01 
-4.3632844e-01 9.6406585e-01 4.3303261e+01 
1.5138821e-01 5.3037512e-01 4.3609200e+01 
1.2119007e-01 4.7490793e-01 4.3606068e+01 
-8.7566733e-02 7.6566672e-01 4.3329563e+01 
-1.7495437e-01 6.4045686e-01 4.3323273e+01 
-3.1819177e-01 9.1839045e-01 4.3237537e+01 
-3.9568463e-01 8.5271639e-01 4.3235813e+01 
2.2269404e-02 6.5294570e-01 4.3398811e+01 
-1.9201367e-01 8.4610778e-01 4.3262066e+01 
-3.8899176e-02 5.5709696e-01 4.3393635e+01 
-2.8052819e-01 7.2267252e-01 4.3254715e+01 
3.7877345e-01 3.8273901e-01 4.4200001e+01 
-4.3632776e-01 9.6406174e-01 4.3171322e+01 
3.9241230e-01 3.7329337e-01 4.3965439e+01 
1.0283732e-02 6.6872352e-01 4.3271511e+01 
-5.6385640e-02 5.6585240e-01 4.3265472e+01 
-8.2753494e-02 7.6403379e-01 4.3186119e+01 
-4.0345609e-01 8.6371827e-01 4.3104889e+01 
-3.1680310e-01 9.1865683e-01 4.3105087e+01 
-1.7150842e-01 6.3665158e-01 4.3179005e+01 
-1.8879703e-01 8.4598809e-01 4.3117241e+01 
-2.7900568e-01 7.2029078e-01 4.3109074e+01 
4.0610775e-01 3.6380205e-01 4.3729839e+01 
1.6776134e-01 5.1882964e-01 4.3331150e+01 
-4.3632707e-01 9.6405768e-01 4.3038357e+01 
1.4031014e-01 4.6124566e-01 4.3307755e+01 
3.4952711e-02 6.4519531e-01 4.3111935e+01 
-7.7818394e-02 7.6232505e-01 4.3039719e+01 
-3.1539652e-01 9.1891652e-01 4.2971603e+01 
-3.9551663e-01 8.5160977e-01 4.2969879e+01 
-2.6899155e-02 5.4666573e-01 4.3105160e+01 
-1.6795819e-01 6.3274628e-01 4.3031849e+01 
-1.8551964e-01 8.4585863e-01 4.2969406e+01 
4.1985780e-01 3.5425979e-01 4.3493168e+01 
-2.7745360e-01 7.1786088e-01 4.2960495e+01 
-4.3632638e-01 9.6405357e-01 4.2904346e+01 
2.2723136e-02 6.6139150e-01 4.2979332e+01 
-4.4916678e-02 5.5559248e-01 4.2971806e+01 
-3.1397179e-01 9.1916907e-01 4.2837063e+01 
-3.9541367e-01 8.5101974e-01 4.2835335e+01 
-7.2757579e-02 7.6053542e-01 4.2890255e+01 
-1.6429928e-01 6.2873662e-01 4.2881699e+01 
1.8463810e-01 5.0694346e-01 4.3035332e+01 
-1.8218029e-01 8.4571803e-01 4.2818455e+01 
1.5503895e-01 4.5003417e-01 4.3027725e+01 
-2.7587104e-01 7.1538109e-01 4.2808868e+01 
4.3366045e-01 3.4466109e-01 4.3255390e+01 
-4.3632573e-01 9.6404958e-01 4.2769268e+01 
-3.8429454e-01 8.3484912e-01 4.2710606e+01 
-3.1252861e-01 9.1941386e-01 4.2701439e+01 
4.8404284e-02 6.3678014e-01 4.2813030e+01 
-1.4070326e-02 5.3562075e-01 4.2804932e+01 
-6.7567028e-02 7.5865942e-01 4.2737610e+01 
-1.6052702e-01 6.2461799e-01 4.2728443e+01 
-1.7877772e-01 8.4556442e-01 4.2664265e+01 
-4.3632504e-01 9.6404558e-01 4.2633099e+01 
-2.7425703e-01 7.1284944e-01 4.2654083e+01 
4.4751364e-01 3.3500037e-01 4.3016472e+01 
3.5901129e-02 6.5341437e-01 4.2674721e+01 
-3.7959340e-01 8.2794034e-01 4.2568317e+01 
-3.1106678e-01 9.1965032e-01 4.2564713e+01 
-3.2659348e-02 5.4472327e-01 4.2665997e+01 
2.0396979e-01 4.9291667e-01 4.2740131e+01 
-6.2242586e-02 7.5669110e-01 4.2581669e+01 
1.7765003e-01 4.3475360e-01 4.2732578e+01 
-1.5663649e-01 6.2038553e-01 4.2571964e+01 
-4.3632439e-01 9.6404165e-01 4.2495808e+01 
-1.7531081e-01 8.4539592e-01 4.2506718e+01 
-2.7261066e-01 7.1026409e-01 4.2496017e+01 
-3.0958602e-01 9.1987789e-01 4.2426853e+01 
-3.7859210e-01 8.2613736e-01 4.2421188e+01 
4.6141517e-01 3.2527190e-01 4.2776375e+01 
6.2686495e-02 6.2762415e-01 4.2501175e+01 
-3.3570320e-04 5.2390522e-01 4.2492062e+01 
-5.6779940e-02 7.5462401e-01 4.2422298e+01 
-4.3632373e-01 9.6403772e-01 4.2357380e+01 
-1.5262254e-01 6.1603409e-01 4.2412144e+01 
-1.7177837e-01 8.4521037e-01 4.2345684e+01 
-2.7093092e-01 7.0762289e-01 4.2334549e+01 
-3.0808610e-01 9.2009580e-01 4.2287842e+01 
-3.8275370e-01 8.3137155e-01 4.2275047e+01 
4.9876589e-02 6.4471585e-01 4.2356720e+01 
-1.9539909e-02 5.3318781e-01 4.2347118e+01 
-4.3632311e-01 9.6403396e-01 4.2217781e+01 
2.1959943e-01 4.8236796e-01 4.2385345e+01 
-5.1174615e-02 7.5245124e-01 4.2259373e+01 
1.9034323e-01 4.2346162e-01 4.2378918e+01 
-1.4847966e-01 6.1155808e-01 4.2248856e+01 
4.7536272e-01 3.1546980e-01 4.2535065e+01 
-1.6817927e-01 8.4500539e-01 4.2181026e+01 
-2.6921678e-01 7.0492369e-01 4.2169544e+01 
-3.0656675e-01 9.2030340e-01 4.2147648e+01 
-3.9470181e-01 8.4769493e-01 4.2145920e+01 
7.7868804e-02 6.1763972e-01 4.2175373e+01 
-4.3632248e-01 9.6403021e-01 4.2076988e+01 
1.4390758e-02 5.1145434e-01 4.2165581e+01 
-4.5421973e-02 7.5016522e-01 4.2092751e+01 
-1.4420210e-01 6.0695171e-01 4.2081959e+01 
-3.0502778e-01 9.2049998e-01 4.2006248e+01 
-4.0175444e-01 8.5747409e-01 4.2004128e+01 
-1.6451253e-01 8.4477836e-01 4.2012604e+01 
4.8935395e-01 3.0558801e-01 4.2292507e+01 
-2.6746723e-01 7.0216429e-01 4.2000870e+01 
6.4714879e-02 6.3520777e-01 4.2024277e+01 
-4.3632188e-01 9.6402657e-01 4.1934975e+01 
-5.4755262e-03 5.2092212e-01 4.2014156e+01 
-2.3078828e-01 8.1064087e-01 4.1931458e+01 
2.3550548e-01 4.7116494e-01 4.2073269e+01 
2.0610523e-01 4.1123796e-01 4.2066772e+01 
-3.9517213e-02 7.4775779e-01 4.1922287e+01 
-1.3978374e-01 6.0220873e-01 4.1911320e+01 
-3.0346894e-01 9.2068475e-01 4.1863613e+01 
-3.9432141e-01 8.4618556e-01 4.1861881e+01 
-1.6077711e-01 8.4452641e-01 4.1840263e+01 
-2.6568118e-01 6.9934219e-01 4.1828377e+01 
-4.3632129e-01 9.6402299e-01 4.1791718e+01 
5.0338638e-01 2.9562023e-01 4.2048656e+01 
9.4028555e-02 6.0672593e-01 4.1834507e+01 
3.0205652e-02 4.9819478e-01 4.1824417e+01 
-3.8116732e-01 8.2744831e-01 4.1725647e+01 
-3.0189002e-01 9.2085695e-01 4.1719719e+01 
-3.3455357e-02 7.4522001e-01 4.1747829e+01 
-1.3521814e-01 5.9732240e-01 4.1736786e+01 
-4.3632072e-01 9.6401960e-01 4.1647179e+01 
-1.5697217e-01 8.4424627e-01 4.1663853e+01 
-2.6385748e-01 6.9645494e-01 4.1651920e+01 
8.0488607e-02 6.2478805e-01 4.1676235e+01 
2.6870471e-01 4.4547972e-01 4.1752304e+01 
9.6269641e-03 5.0785345e-01 4.1665993e+01 
2.4764967e-01 3.8646612e-01 4.1743168e+01 
-3.0029076e-01 9.2101562e-01 4.1574532e+01 
-3.9388368e-01 8.4456980e-01 4.1572796e+01 
5.1745731e-01 2.8556010e-01 4.1803486e+01 
-2.7231261e-02 7.4254233e-01 4.1569210e+01 
-1.3049847e-01 5.9228569e-01 4.1558201e+01 
-4.3632016e-01 9.6401632e-01 4.1501339e+01 
-1.5309690e-01 8.4393430e-01 4.1483204e+01 
-2.6199502e-01 6.9349992e-01 4.1471333e+01 
-2.9867104e-01 9.2115986e-01 4.1428024e+01 
-3.9364263e-01 8.4372103e-01 4.1426289e+01 
1.1125199e-01 5.9476525e-01 4.1477348e+01 
4.7217656e-02 4.8404291e-01 4.1467384e+01 
-4.3631962e-01 9.6401310e-01 4.1354160e+01 
-2.0839609e-02 7.3971421e-01 4.1386261e+01 
-1.2561750e-01 5.8709091e-01 4.1375404e+01 
5.3156406e-01 2.7540097e-01 4.1556946e+01 
-1.4915068e-01 8.4358656e-01 4.1298138e+01 
-2.9703063e-01 9.2128879e-01 4.1280167e+01 
-3.9338648e-01 8.4284443e-01 4.1278431e+01 
-2.6009262e-01 6.9047421e-01 4.1286449e+01 
2.9365057e-01 4.2687622e-01 4.1391586e+01 
9.7278498e-02 6.1333776e-01 4.1311302e+01 
2.7470219e-01 3.6807936e-01 4.1382729e+01 
2.5872495e-02 4.9389899e-01 4.1301384e+01 
-4.3631911e-01 9.6401012e-01 4.1205620e+01 
-1.4274905e-02 7.3672432e-01 4.1198803e+01 
-1.2056758e-01 5.8173001e-01 4.1188221e+01 
-2.9536936e-01 9.2140132e-01 4.1130928e+01 
[...]
POINT_DATA 4496
FIELD FieldData 5
DISPLACEMENT 3 4496  float
4.7049241e-04 5.7652517e-04 -1.0557129e-05 
4.6790484e-04 5.7242357e-04 -1.0556781e-05 
4.7382811e-04 5.8399205e-04 -1.1249617e-05 
4.7852864e-04 5.7984126e-04 -7.5672588e-06 
4.7363580e-04 5.7294033e-04 -7.8380463e-06 
4.6968969e-04 5.7753077e-04 -1.1280360e-05 
4.6530087e-04 5.6829618e-04 -1.0556213e-05 
4.7812247e-04 5.9105677e-04 -1.1332920e-05 
4.8518961e-04 5.8601599e-04 -6.1766900e-06 
4.7551538e-04 5.8710051e-04 -1.1388250e-05 
4.8268744e-04 5.8192352e-04 -6.1357341e-06 
4.7104745e-04 5.6879857e-04 -7.8249650e-06 
4.6705725e-04 5.7347107e-04 -1.1316531e-05 
4.7286099e-04 5.8306946e-04 -1.1444125e-05 
4.8261436e-04 5.9711601e-04 -1.0998325e-05 
4.8013963e-04 5.7775900e-04 -6.0950119e-06 
4.6268068e-04 5.6414230e-04 -1.0555422e-05 
4.8996846e-04 5.9206976e-04 -5.6948911e-06 
4.7538435e-04 5.7528424e-04 -7.7022469e-06 
4.8099228e-04 5.9404876e-04 -1.0840849e-05 
4.8823270e-04 5.8900676e-04 -5.5950181e-06 
4.6440994e-04 5.6938548e-04 -1.1350053e-05 
4.6844315e-04 5.6463171e-04 -7.8127305e-06 
4.7015824e-04 5.7896390e-04 -1.1500793e-05 
4.7754552e-04 5.7351938e-04 -6.0534544e-06 
4.8838678e-04 6.0316408e-04 -1.0015872e-05 
4.7632094e-04 5.8741926e-04 -1.1086200e-05 
4.6004861e-04 5.5996241e-04 -1.0553676e-05 
4.9449893e-04 5.9924566e-04 -5.6937283e-06 
4.8386239e-04 5.8200333e-04 -5.5688861e-06 
4.6740723e-04 5.7478150e-04 -1.1557521e-05 
4.6174758e-04 5.6527345e-04 -1.1385072e-05 
4.6582561e-04 5.6044117e-04 -7.8016365e-06 
4.8445721e-04 5.9631973e-04 -9.8210276e-06 
4.7490321e-04 5.6920381e-04 -6.0121110e-06 
4.7367308e-04 5.8336009e-04 -1.1130033e-05 
4.9030955e-04 5.9239805e-04 -5.6246922e-06 
4.8962090e-04 6.0267124e-04 -9.2390756e-06 
4.8132101e-04 5.7782885e-04 -5.5207188e-06 
4.9455033e-04 5.9961673e-04 -5.7840857e-06 
4.5739883e-04 5.5576133e-04 -1.0552539e-05 
4.9495971e-04 6.0992868e-04 -8.8571715e-06 
4.8094997e-04 5.9156754e-04 -1.0077386e-05 
4.8730182e-04 5.8743078e-04 -5.5592677e-06 
4.9911335e-04 6.0753670e-04 -6.0043276e-06 
4.6460505e-04 5.7051878e-04 -1.1614413e-05 
4.7097777e-04 5.7922455e-04 -1.1173390e-05 
4.5907049e-04 5.6113792e-04 -1.1418256e-05 
4.6319290e-04 5.5622472e-04 -7.7868172e-06 
4.7221495e-04 5.6481105e-04 -5.9705562e-06 
4.7873496e-04 5.7357969e-04 -5.4715429e-06 
4.9634028e-04 6.1054307e-04 -8.3580999e-06 
4.7940231e-04 5.8835844e-04 -9.8381333e-06 
4.9936917e-04 6.0892239e-04 -6.3142456e-06 
4.5473667e-04 5.5153028e-04 -1.0549855e-05 
4.8538123e-04 5.8432471e-04 -5.5373175e-06 
4.9084297e-04 6.0244731e-04 -8.5546235e-06 
4.9438310e-04 6.0035480e-04 -6.0987159e-06 
5.0197943e-04 6.1849965e-04 -8.0473228e-06 
5.0408207e-04 6.1747927e-04 -6.6608768e-06 
4.6823491e-04 5.7501066e-04 -1.1217405e-05 
4.7587682e-04 5.8358448e-04 -1.0096173e-05 
4.6175293e-04 5.6617742e-04 -1.1672119e-05 
4.5637685e-04 5.5697508e-04 -1.1453167e-05 
4.6054629e-04 5.5198459e-04 -7.7745581e-06 
4.7610211e-04 5.6925591e-04 -5.4237030e-06 
4.8226956e-04 5.7918380e-04 -5.4703210e-06 
4.6947529e-04 5.6033809e-04 -5.9297113e-06 
4.5205778e-04 5.4727704e-04 -1.0548663e-05 
4.8647370e-04 5.9537555e-04 -8.5090114e-06 
4.9000775e-04 5.9331377e-04 -6.0598163e-06 
4.6544321e-04 5.7071866e-04 -1.1258757e-05 
4.7342031e-04 5.6485285e-04 -5.3740291e-06 
4.5367135e-04 5.5279059e-04 -1.1485527e-05 
4.5788751e-04 5.4772053e-04 -7.7628574e-06 
4.7417189e-04 5.8009964e-04 -9.8485343e-06 
4.5884892e-04 5.6175166e-04 -1.1728660e-05 
4.8027516e-04 5.7596597e-04 -5.4491661e-06 
4.6668597e-04 5.5578398e-04 -5.8885576e-06 
5.0833385e-04 6.2959502e-04 -8.3735513e-06 
4.4936451e-04 5.4299703e-04 -1.0548049e-05 
5.0407829e-04 6.2276365e-04 -8.3455134e-06 
4.7052550e-04 5.7515537e-04 -1.0113525e-05 
4.7705608e-04 5.7064317e-04 -5.3792446e-06 
4.6260303e-04 5.6634413e-04 -1.1300509e-05 
4.5449391e-04 5.4297014e-04 -7.9657893e-06 
4.5094563e-04 5.4857513e-04 -1.1520387e-05 
4.7069311e-04 5.6037348e-04 -5.3256263e-06 
4.5589343e-04 5.5724481e-04 -1.1785295e-05 
4.6385030e-04 5.5115047e-04 -5.8451101e-06 
4.9979537e-04 6.1589078e-04 -8.3163950e-06 
4.8145858e-04 5.8730261e-04 -8.4686681e-06 
4.4665500e-04 5.3869584e-04 -1.0547540e-05 
4.8469965e-04 5.8475835e-04 -6.0084276e-06 
4.6875922e-04 5.7152740e-04 -9.8520586e-06 
4.5971281e-04 5.6188798e-04 -1.1339832e-05 
4.4821479e-04 5.4434052e-04 -1.1550442e-05 
4.5252187e-04 5.3911400e-04 -7.7359218e-06 
4.7498354e-04 5.6730915e-04 -5.3599988e-06 
4.6791325e-04 5.5581122e-04 -5.2752857e-06 
4.5288421e-04 5.5264874e-04 -1.1840377e-05 
4.9548561e-04 6.0896354e-04 -8.2862398e-06 
4.6095825e-04 5.4642971e-04 -5.8045980e-06 
4.4394020e-04 5.3436478e-04 -1.0543672e-05 
4.6498838e-04 5.6640489e-04 -1.0123405e-05 
4.7165365e-04 5.6179758e-04 -5.2884711e-06 
4.4546710e-04 5.4007978e-04 -1.1585134e-05 
4.4982362e-04 5.3477852e-04 -7.7250925e-06 
4.5677187e-04 5.5734516e-04 -1.1379122e-05 
4.6508736e-04 5.5117055e-04 -5.2279647e-06 
4.7610310e-04 5.7867914e-04 -8.4271196e-06 
4.4981969e-04 5.4796279e-04 -1.1894470e-05 
4.7961567e-04 5.7652144e-04 -5.9474837e-06 
4.5801947e-04 5.4162962e-04 -5.7663624e-06 
4.9115421e-04 6.0200319e-04 -8.2617526e-06 
4.4120479e-04 5.3002097e-04 -1.0540998e-05 
4.4833016e-04 5.3148012e-04 -7.4295226e-06 
4.4270948e-04 5.3580245e-04 -1.1612437e-05 
4.6315961e-04 5.6263141e-04 -9.8475430e-06 
4.6950052e-04 5.5834645e-04 -5.2732526e-06 
4.5377662e-04 5.5271888e-04 -1.1416423e-05 
4.6220672e-04 5.4644578e-04 -5.1774068e-06 
4.4670564e-04 5.4319674e-04 -1.1947325e-05 
4.3846216e-04 5.2565197e-04 -1.0536195e-05 
4.5502427e-04 5.3673360e-04 -5.7260481e-06 
4.8679669e-04 5.9499644e-04 -8.2301676e-06 
4.5926054e-04 5.5732508e-04 -1.0124945e-05 
4.4589708e-04 5.2721408e-04 -7.3020924e-06 
4.3994145e-04 5.3149858e-04 -1.1635372e-05 
4.6605617e-04 5.5264047e-04 -5.1996835e-06 
4.7090653e-04 5.7024613e-04 -8.3654995e-06 
4.5073757e-04 5.4800586e-04 -1.1454964e-05 
4.7448391e-04 5.6830980e-04 -5.9189629e-06 
4.5928010e-04 5.4163905e-04 -5.1372858e-06 
4.3571266e-04 5.2125845e-04 -1.0526470e-05 
4.4353277e-04 5.3833920e-04 -1.2003081e-05 
4.5197588e-04 5.3175975e-04 -5.6885042e-06 
4.3715708e-04 5.2717613e-04 -1.1665056e-05 
4.4304709e-04 5.2257907e-04 -7.2723383e-06 
4.8243214e-04 5.8797549e-04 -8.1952476e-06 
4.5737170e-04 5.5340276e-04 -9.8308110e-06 
4.6382463e-04 5.4907048e-04 -5.1862567e-06 
4.4764427e-04 5.4320728e-04 -1.1483164e-05 
4.3294701e-04 5.1685382e-04 -1.0521868e-05 
4.5629879e-04 5.3674728e-04 -5.0910653e-06 
4.4030807e-04 5.3339126e-04 -1.2052367e-05 
4.4887551e-04 5.2669941e-04 -5.6512231e-06 
4.3436929e-04 5.2283797e-04 -1.1690492e-05 
4.3978199e-04 5.1766622e-04 -7.3654501e-06 
4.5334364e-04 5.4790283e-04 -1.0113157e-05 
4.6027135e-04 5.4316618e-04 -5.1101151e-06 
4.3017647e-04 5.1243469e-04 -1.0515840e-05 
4.6429023e-04 5.5966841e-04 -8.3397463e-06 
4.4450155e-04 5.3832319e-04 -1.1509346e-05 
4.6791902e-04 5.5759260e-04 -5.8252808e-06 
4.5326885e-04 5.3177791e-04 -5.0470426e-06 
4.7804989e-04 5.8091758e-04 -8.1565377e-06 
4.3702943e-04 5.2835344e-04 -1.2100600e-05 
4.4571975e-04 5.2155071e-04 -5.6151462e-06 
4.3157907e-04 5.1848957e-04 -1.1711913e-05 
4.3617247e-04 5.1282271e-04 -7.6546048e-06 
4.5140146e-04 5.4384460e-04 -9.8023484e-06 
4.2739752e-04 5.0799357e-04 -1.0511597e-05 
4.5796204e-04 5.3948670e-04 -5.1090888e-06 
4.4130970e-04 5.3335272e-04 -1.1533833e-05 
4.5019708e-04 5.2672473e-04 -5.0000081e-06 
4.2876415e-04 5.1410747e-04 -1.1742771e-05 
4.3272832e-04 5.0789799e-04 -7.8325611e-06 
4.3369646e-04 5.2322546e-04 -1.2147058e-05 
4.7366048e-04 5.7383464e-04 -8.1180715e-06 
4.4252371e-04 5.1632401e-04 -5.5748574e-06 
4.4724773e-04 5.3815788e-04 -1.0087891e-05 
4.2459185e-04 5.0352857e-04 -1.0509708e-05 
4.5429930e-04 5.3338503e-04 -5.0292947e-06 
4.3426015e-04 5.1645603e-04 -9.7379616e-06 
4.5864464e-04 5.5057177e-04 -8.2976539e-06 
4.6231668e-04 5.4849731e-04 -5.7682350e-06 
4.3807071e-04 5.2830105e-04 -1.1558042e-05 
4.4707398e-04 5.2159338e-04 -4.9534087e-06 
4.2593706e-04 5.0970359e-04 -1.1766276e-05 
4.3062307e-04 5.0389027e-04 -7.6302631e-06 
4.3030799e-04 5.1801617e-04 -1.2194903e-05 
4.3927698e-04 5.1099807e-04 -5.5367541e-06 
4.2178447e-04 4.9904041e-04 -1.0500708e-05 
4.6928006e-04 5.6675990e-04 -8.0810642e-06 
4.4525252e-04 5.3395727e-04 -9.7618204e-06 
4.5191430e-04 5.2959542e-04 -5.0349063e-06 
4.2913889e-04 5.0046184e-04 -7.2965722e-06 
4.2311719e-04 5.0529593e-04 -1.1782026e-05 
4.3477592e-04 5.2315055e-04 -1.1579812e-05 
4.4389695e-04 5.1636773e-04 -4.9054729e-06 
4.1897869e-04 4.9453590e-04 -1.0486464e-05 
4.2686725e-04 5.1270204e-04 -1.2240811e-05 
4.3596278e-04 5.0557975e-04 -5.5044861e-06 
4.4096611e-04 5.2807486e-04 -1.0047900e-05 
4.5378678e-04 5.4235797e-04 -8.1382159e-06 
4.4812987e-04 5.2328297e-04 -4.9533164e-06 
4.5732377e-04 5.4073625e-04 -5.8302508e-06 
4.2028097e-04 5.0086697e-04 -1.1805665e-05 
4.2507256e-04 4.9491256e-04 -7.5954772e-06 
4.6492831e-04 5.5972068e-04 -8.0394848e-06 
4.3143259e-04 5.1790813e-04 -1.1598987e-05 
4.4067419e-04 5.1106315e-04 -4.8689458e-06 
4.1616484e-04 4.9003219e-04 -1.0476848e-05 
4.2336862e-04 5.0729583e-04 -1.2277095e-05 
4.3259977e-04 5.0007977e-04 -5.4774237e-06 
4.1745015e-04 4.9642898e-04 -1.1820502e-05 
4.2228511e-04 4.9041293e-04 -7.5886865e-06 
4.3892086e-04 5.2372523e-04 -9.7023049e-06 
4.4567915e-04 5.1939231e-04 -4.9582231e-06 
4.1333883e-04 4.8552462e-04 -1.0471257e-05 
4.2803935e-04 5.1258097e-04 -1.1608201e-05 
4.3740016e-04 5.0567195e-04 -4.8233351e-06 
4.6057324e-04 5.5265689e-04 -7.9867195e-06 
4.1981804e-04 5.0180359e-04 -1.2308758e-05 
4.1460927e-04 4.9198908e-04 -1.1833544e-05 
4.1948757e-04 4.8589389e-04 -7.5687108e-06 
4.2919029e-04 4.9448758e-04 -5.4371994e-06 
4.4775088e-04 5.3245237e-04 -8.0378741e-06 
4.3450549e-04 5.1763660e-04 -9.9957369e-06 
4.5125693e-04 5.3098798e-04 -5.8061078e-06 
4.4178677e-04 5.1286636e-04 -4.8721727e-06 
4.1051846e-04 4.8098137e-04 -1.0461042e-05 
4.2460408e-04 5.0716550e-04 -1.1621750e-05 
4.3406984e-04 5.0019287e-04 -4.7800686e-06 
4.1176367e-04 4.8751547e-04 -1.1853685e-05 
4.1669773e-04 4.8136109e-04 -7.5595713e-06 
4.1621915e-04 4.9620832e-04 -1.2350673e-05 
4.2572431e-04 4.8881269e-04 -5.4086490e-06 
4.5623654e-04 5.4561044e-04 -7.9391930e-06 
4.0768221e-04 4.7644525e-04 -1.0453648e-05 
4.3241720e-04 5.1314797e-04 -9.6294234e-06 
4.3925189e-04 5.0885603e-04 -4.8928964e-06 
4.0891307e-04 4.8304282e-04 -1.1872380e-05 
4.1389337e-04 4.7681839e-04 -7.5421376e-06 
4.2111002e-04 5.0164293e-04 -1.1625307e-05 
4.3070191e-04 4.9463473e-04 -4.7429667e-06 
4.0485538e-04 4.7188159e-04 -1.0441049e-05 
4.1256752e-04 4.9052358e-04 -1.2372538e-05 
4.2219975e-04 4.8303875e-04 -5.3738609e-06 
4.4155345e-04 5.2222941e-04 -7.9314950e-06 
4.4502073e-04 5.2094070e-04 -5.7795178e-06 
4.2909748e-04 5.0772011e-04 -9.5736468e-06 
4.5193819e-04 5.3860381e-04 -7.8904386e-06 
4.0607154e-04 4.7855466e-04 -1.1879016e-05 
4.1109751e-04 4.7227647e-04 -7.5404359e-06 
4.3596339e-04 5.0348061e-04 -4.8529973e-06 
4.1758196e-04 4.9604609e-04 -1.1622642e-05 
4.2727581e-04 4.8898318e-04 -4.7066796e-06 
4.0201560e-04 4.6733586e-04 -1.0432143e-05 
4.0885145e-04 4.8473611e-04 -1.2400299e-05 
4.1864681e-04 4.7718399e-04 -5.3474537e-06 
4.0322525e-04 4.7408545e-04 -1.1882593e-05 
4.0829115e-04 4.6772568e-04 -7.5213643e-06 
4.2574372e-04 5.0221186e-04 -9.5233227e-06 
4.1389294e-04 4.7728015e-04 -7.6966271e-06 
4.3264357e-04 4.9802876e-04 -4.8304682e-06 
3.9918351e-04 4.6276176e-04 -1.0413971e-05 
4.4763397e-04 5.3155777e-04 -7.8333951e-06 
4.3560722e-04 5.1277457e-04 -7.9422553e-06 
4.1400539e-04 4.9035676e-04 -1.1600135e-05 
4.3910634e-04 5.1094266e-04 -5.6214744e-06 
4.2381618e-04 4.8327344e-04 -4.6697883e-06 
4.0037101e-04 4.6957826e-04 -1.1877140e-05 
4.0548487e-04 4.6316575e-04 -7.5083376e-06 
4.0512477e-04 4.7888805e-04 -1.2400926e-05 
4.1502848e-04 4.7125918e-04 -5.3387630e-06 
3.9634926e-04 4.5820768e-04 -1.0405140e-05 
4.2235845e-04 4.9663224e-04 -9.4763609e-06 
4.2928007e-04 4.9250299e-04 -4.7973213e-06 
4.1039701e-04 4.8459275e-04 -1.1591516e-05 
3.9753853e-04 4.6508695e-04 -1.1879833e-05 
4.0269797e-04 4.5861540e-04 -7.4950062e-06 
4.2030474e-04 4.7747718e-04 -4.6258556e-06 
4.4334409e-04 5.2457291e-04 -7.7928789e-06 
4.0132596e-04 4.7293858e-04 -1.2425769e-05 
3.9352398e-04 4.5364344e-04 -1.0389527e-05 
4.3631601e-04 5.0727511e-04 -5.8979258e-06 
4.3395974e-04 5.0894404e-04 -7.5840958e-06 
4.1137237e-04 4.6524598e-04 -5.3021695e-06 
4.1893576e-04 4.9097737e-04 -9.4095658e-06 
4.2586931e-04 4.8689751e-04 -4.7760359e-06 
3.9469826e-04 4.6058890e-04 -1.1886185e-05 
3.9990072e-04 4.5406018e-04 -7.4820164e-06 
4.0673939e-04 4.7873275e-04 -1.1577994e-05 
4.1676228e-04 4.7160019e-04 -4.5914821e-06 
3.9068796e-04 4.4906989e-04 -1.0371798e-05 
4.3910512e-04 5.1760161e-04 -7.7215445e-06 
3.9747052e-04 4.6688720e-04 -1.2446977e-05 
4.0766897e-04 4.5913778e-04 -5.2683095e-06 
3.9184408e-04 4.5608237e-04 -1.1890120e-05 
3.9708396e-04 4.4949100e-04 -7.4714212e-06 
4.3212369e-04 5.0037849e-04 -5.8540709e-06 
4.2977670e-04 5.0206837e-04 -7.5298540e-06 
4.1533919e-04 4.8507447e-04 -9.3473354e-06 
4.2224792e-04 4.8092933e-04 -4.7459862e-06 
3.9997429e-04 4.5825171e-04 -8.6724067e-06 
3.8786404e-04 4.4449736e-04 -1.0350294e-05 
4.0292449e-04 4.7270145e-04 -1.1580069e-05 
4.1303705e-04 4.6545453e-04 -4.5775023e-06 
3.8897921e-04 4.5146683e-04 -1.1861373e-05 
3.9421042e-04 4.4491034e-04 -7.4990980e-06 
3.9365777e-04 4.6086137e-04 -1.2430701e-05 
4.3491699e-04 5.1069789e-04 -7.6467995e-06 
4.0401009e-04 4.5313031e-04 -5.2595342e-06 
3.8508754e-04 4.4003420e-04 -1.0341769e-05 
4.1122249e-04 4.7866651e-04 -9.3940971e-06 
4.1835880e-04 4.7441959e-04 -4.6881514e-06 
4.2801903e-04 4.9361837e-04 -5.8033247e-06 
4.2568689e-04 4.9531402e-04 -7.4602758e-06 
3.9611341e-04 4.5210012e-04 -8.6893915e-06 
3.8618510e-04 4.4696080e-04 -1.1826069e-05 
3.9898098e-04 4.6656592e-04 -1.1603689e-05 
3.9138756e-04 4.4040149e-04 -7.5127009e-06 
4.0931883e-04 4.5932355e-04 -4.5591137e-06 
3.8238222e-04 4.3562066e-04 -1.0314946e-05 
3.8998356e-04 4.5502963e-04 -1.2419991e-05 
4.0046577e-04 4.4730908e-04 -5.2502355e-06 
4.3078480e-04 5.0385873e-04 -7.5758944e-06 
4.0711541e-04 4.7241795e-04 -9.4909274e-06 
4.1459061e-04 4.6810208e-04 -4.6406635e-06 
3.8341686e-04 4.4250023e-04 -1.1813791e-05 
3.8861207e-04 4.3597416e-04 -7.5313551e-06 
4.1835452e-04 4.8443067e-04 -7.7176746e-06 
4.2186701e-04 4.8254529e-04 -5.4472248e-06 
3.9517414e-04 4.6062702e-04 -1.1630128e-05 
4.0570757e-04 4.5334725e-04 -4.5351821e-06 
3.9153363e-04 4.4471063e-04 -8.6708005e-06 
3.7971401e-04 4.3130043e-04 -1.0301565e-05 
3.9703000e-04 4.4163346e-04 -5.2276264e-06 
3.8640460e-04 4.4934233e-04 -1.2405448e-05 
3.8072327e-04 4.3812272e-04 -1.1790690e-05 
3.8588923e-04 4.3162884e-04 -7.5477205e-06 
4.1092222e-04 4.6195282e-04 -4.5867614e-06 
4.0313572e-04 4.6634875e-04 -9.5860305e-06 
4.2672604e-04 4.9714977e-04 -7.5191997e-06 
3.7707514e-04 4.2704327e-04 -1.0291463e-05 
4.0219235e-04 4.4754130e-04 -4.5100583e-06 
3.9147210e-04 4.5486118e-04 -1.1657577e-05 
4.1772818e-04 4.8213403e-04 -7.3616293e-06 
4.1789896e-04 4.7611774e-04 -5.4735660e-06 
3.7805489e-04 4.3380976e-04 -1.1759793e-05 
3.8283819e-04 4.2702651e-04 -7.6345741e-06 
3.9370454e-04 4.3609898e-04 -5.1836837e-06 
3.8293944e-04 4.4385440e-04 -1.2413355e-05 
3.8440753e-04 4.3450753e-04 -9.0285284e-06 
3.7448920e-04 4.2281853e-04 -1.0260278e-05 
4.0733628e-04 4.5596506e-04 -4.5574930e-06 
4.0250886e-04 4.6306822e-04 -8.9228179e-06 
3.9876412e-04 4.4190136e-04 -4.5145903e-06 
3.8789594e-04 4.4924216e-04 -1.1679262e-05 
3.7543004e-04 4.2954381e-04 -1.1723487e-05 
4.2278189e-04 4.9060094e-04 -7.4699269e-06 
3.8055526e-04 4.2308521e-04 -7.5639546e-06 
3.8683653e-04 4.3517110e-04 -8.1001499e-06 
4.1426648e-04 4.7007529e-04 -5.4147854e-06 
3.7194605e-04 4.1869018e-04 -1.0241931e-05 
3.9042433e-04 4.3073657e-04 -5.1980096e-06 
3.7957585e-04 4.3847266e-04 -1.2385737e-05 
4.1384384e-04 4.7567728e-04 -7.2922971e-06 
4.0385971e-04 4.5015346e-04 -4.5003712e-06 
3.9554504e-04 4.5471211e-04 -9.7079674e-06 
3.7285758e-04 4.2536700e-04 -1.1707961e-05 
3.7797148e-04 4.1893372e-04 -7.5777393e-06 
3.9544760e-04 4.3641834e-04 -4.4897010e-06 
3.8442950e-04 4.4377887e-04 -1.1682207e-05 
3.8082185e-04 4.2574215e-04 -8.1817707e-06 
3.6944245e-04 4.1462469e-04 -1.0226907e-05 
4.1888794e-04 4.8413032e-04 -7.4312416e-06 
3.8726741e-04 4.2549876e-04 -5.1650504e-06 
3.7630566e-04 4.3325737e-04 -1.2371133e-05 
4.0922273e-04 4.6098145e-04 -5.1474713e-06 
4.0429804e-04 4.6225658e-04 -7.8492940e-06 
3.7032494e-04 4.2124829e-04 -1.1681474e-05 
4.0048745e-04 4.4449072e-04 -4.4554290e-06 
3.7700919e-04 4.1572307e-04 -7.1035270e-06 
3.9193398e-04 4.4916745e-04 -9.7781694e-06 
3.6696499e-04 4.1060729e-04 -1.0212973e-05 
3.9221434e-04 4.3106344e-04 -4.4625463e-06 
3.8105698e-04 4.3848451e-04 -1.1684205e-05 
3.7290048e-04 4.1080706e-04 -7.6011479e-06 
3.6742314e-04 4.1613693e-04 -1.1543691e-05 
3.8419836e-04 4.2040335e-04 -5.1491270e-06 
3.7312435e-04 4.2817372e-04 -1.2360019e-05 
4.1506259e-04 4.7771895e-04 -7.3658894e-06 
3.7490108e-04 4.2019610e-04 -9.3017807e-06 
3.9720949e-04 4.3899685e-04 -4.4198969e-06 
3.8840334e-04 4.4374896e-04 -9.8428973e-06 
3.6453322e-04 4.0668022e-04 -1.0204534e-05 
3.8905488e-04 4.2588208e-04 -4.4623634e-06 
4.0629233e-04 4.6302137e-04 -7.1843206e-06 
4.0854616e-04 4.6133588e-04 -5.6190388e-06 
3.7269655e-04 4.0873321e-04 -7.1167901e-06 
3.7777092e-04 4.3329451e-04 -1.1677150e-05 
3.6608239e-04 4.1483439e-04 -1.1763208e-05 
4.0165678e-04 4.4740541e-04 -4.7753952e-06 
3.9590863e-04 4.5006032e-04 -8.2208981e-06 
3.8117944e-04 4.1544883e-04 -5.1501679e-06 
3.7007677e-04 4.2322371e-04 -1.2301736e-05 
3.6216073e-04 4.0281125e-04 -1.0179033e-05 
3.9400952e-04 4.3363817e-04 -4.3768910e-06 
3.8500427e-04 4.3851160e-04 -9.8942819e-06 
4.1123221e-04 4.7129279e-04 -7.2955704e-06 
3.7085230e-04 4.0505038e-04 -6.9135531e-06 
3.6351033e-04 4.1072830e-04 -1.1748036e-05 
3.8599706e-04 4.2080090e-04 -4.4507105e-06 
3.7460821e-04 4.2827969e-04 -1.1688025e-05 
3.5983018e-04 3.9898453e-04 -1.0156758e-05 
4.0257972e-04 4.5679588e-04 -7.1171080e-06 
4.0480730e-04 4.5512262e-04 -5.5807968e-06 
3.7826513e-04 4.1059239e-04 -5.1156653e-06 
3.6710143e-04 4.1843890e-04 -1.2282473e-05 
3.9088866e-04 4.2840748e-04 -4.3464183e-06 
3.6087903e-04 4.0633327e-04 -1.1697502e-05 
3.7994905e-04 4.3171202e-04 -1.0261590e-05 
3.9624519e-04 4.3828005e-04 -4.6945079e-06 
3.6784966e-04 4.0016856e-04 -6.9241669e-06 
3.8300102e-04 4.1586091e-04 -4.4477279e-06 
3.7154547e-04 4.2338035e-04 -1.1680135e-05 
3.5751014e-04 3.9522385e-04 -1.0134192e-05 
4.0751265e-04 4.6500232e-04 -7.2108301e-06 
3.6628023e-04 4.0604357e-04 -9.2164819e-06 
3.7541767e-04 4.0589349e-04 -5.0932817e-06 
3.9013452e-04 4.4005446e-04 -8.0266755e-06 
3.5807124e-04 4.0092182e-04 -1.1427395e-05 
3.6420036e-04 4.1372716e-04 -1.2256636e-05 
3.6326848e-04 3.9535001e-04 -7.6332135e-06 
3.8784891e-04 4.2332450e-04 -4.3116434e-06 
3.9895912e-04 4.5068472e-04 -7.0300189e-06 
4.0117072e-04 4.4902251e-04 -5.5100918e-06 
3.7848338e-04 4.2840483e-04 -9.9985300e-06 
3.6729014e-04 3.9750370e-04 -6.4420210e-06 
3.5523798e-04 3.9153174e-04 -1.0116429e-05 
3.8009454e-04 4.1105939e-04 -4.4224544e-06 
3.6854928e-04 4.1860991e-04 -1.1670556e-05 
3.6104876e-04 3.9203803e-04 -7.7074001e-06 
3.5601371e-04 3.9784037e-04 -1.1473789e-05 
3.7264431e-04 4.0127645e-04 -5.0768499e-06 
3.6137691e-04 4.0917800e-04 -1.2214990e-05 
4.0385162e-04 4.5883912e-04 -7.1417285e-06 
3.8487336e-04 4.1836165e-04 -4.2832407e-06 
3.5301020e-04 3.8788430e-04 -1.0093671e-05 
3.7369423e-04 4.2194285e-04 -1.0325005e-05 
3.6267433e-04 3.9139274e-04 -6.8096460e-06 
3.9121707e-04 4.2998916e-04 -4.6780351e-06 
3.7724251e-04 4.0635627e-04 -4.4135504e-06 
3.6863933e-04 4.0386472e-04 -7.5587209e-06 
3.5460040e-04 3.9626070e-04 -1.1654243e-05 
3.9540918e-04 4.4468293e-04 -6.9828234e-06 
3.6564522e-04 4.1395752e-04 -1.1666149e-05 
3.9760376e-04 4.4303475e-04 -5.4801812e-06 
3.6992435e-04 3.9680942e-04 -5.0849558e-06 
3.8360417e-04 4.2983380e-04 -8.1118997e-06 