# vtk DataFile Version 4.0
vtk output
ASCII
DATASET UNSTRUCTURED_GRID
POINTS 4496 float
-4.3633327e-01 9.6409470e-01 4.4200001e+01 
-4.3633258e-01 9.6409065e-01 4.4074627e+01 
-3.2152572e-01 9.1279918e-01 4.4200001e+01 
-3.8534868e-01 8.4052670e-01 4.4200001e+01 
-3.9589554e-01 8.5545403e-01 4.4010014e+01 
-3.2616228e-01 9.1667932e-01 4.4011734e+01 
-4.3633190e-01 9.6408653e-01 4.3948376e+01 
-2.1293370e-01 8.4677851e-01 4.4200001e+01 
-2.9042658e-01 7.3813015e-01 4.4200001e+01 
-2.1010752e-01 8.4669363e-01 4.4073502e+01 
-2.8908840e-01 7.3604190e-01 4.4072292e+01 
-3.9589015e-01 8.5505831e-01 4.3883316e+01 
-3.2487559e-01 9.1697580e-01 4.3885036e+01 
-2.0722924e-01 8.4660655e-01 4.3944645e+01 
-1.1981077e-01 7.7773046e-01 4.4200001e+01 
-2.8772619e-01 7.3391593e-01 4.3942276e+01 
-4.3633121e-01 9.6408242e-01 4.3821228e+01 
-1.9739023e-01 6.6468561e-01 4.4200001e+01 
-2.9444304e-01 7.8727525e-01 4.3879974e+01 
-8.7554991e-02 7.5255024e-01 4.4042213e+01 
-1.6445170e-01 6.4084798e-01 4.4041008e+01 
-3.2357255e-01 9.1726828e-01 4.3757431e+01 
-3.9587301e-01 8.5463828e-01 4.3755711e+01 
-2.0429766e-01 8.4651643e-01 4.3813354e+01 
-2.8633916e-01 7.3175091e-01 4.3809875e+01 
-2.6899619e-02 6.8901783e-01 4.4200001e+01 
-1.0567340e-01 7.7152997e-01 4.3875790e+01 
-4.3633053e-01 9.6407831e-01 4.3693161e+01 
-8.7133333e-02 5.9509218e-01 4.4200001e+01 
-1.8777622e-01 6.5475601e-01 4.3873402e+01 
-2.0131156e-01 8.4642249e-01 4.3679543e+01 
-3.2225290e-01 9.1755641e-01 4.3628902e+01 
-3.9584404e-01 8.5419410e-01 4.3627178e+01 
-1.0114321e-03 6.6670936e-01 4.3939713e+01 
-2.8492665e-01 7.2954547e-01 4.3675007e+01 
-1.0131179e-01 7.7015632e-01 4.3743176e+01 
-6.0682178e-02 5.7631296e-01 4.3938457e+01 
3.9444737e-02 6.2338209e-01 4.4053139e+01 
-1.8470748e-01 6.5131217e-01 4.3739727e+01 
-7.0938184e-03 5.4737431e-01 4.4052326e+01 
-4.3632981e-01 9.6407413e-01 4.3564159e+01 
7.6947339e-02 5.8804804e-01 4.4200001e+01 
-1.2721874e-02 6.8194175e-01 4.3817982e+01 
-7.7214435e-02 5.8474159e-01 4.3819649e+01 
4.0195532e-02 5.2425718e-01 4.4200001e+01 
-1.9826968e-01 8.4632379e-01 4.3543118e+01 
-9.6842363e-02 7.6872379e-01 4.3607994e+01 
-3.2091641e-01 9.1783977e-01 4.3499420e+01 
-3.9580306e-01 8.5372573e-01 4.3497700e+01 
-2.8348783e-01 7.2729832e-01 4.3537586e+01 
-1.8155001e-01 6.4778340e-01 4.3603539e+01 
1.5678726e-01 5.2239102e-01 4.4060219e+01 
1.0298219e-02 6.6009766e-01 4.3674484e+01 
1.3250886e-01 4.7546524e-01 4.4058990e+01 
-4.3632913e-01 9.6407002e-01 4.3434200e+01 
-5.0139543e-02 5.6696451e-01 4.3671154e+01 
1.3504514e-01 5.4209155e-01 4.3856747e+01 
1.0361936e-01 4.8715758e-01 4.3855240e+01 
2.0846681e-01 4.8028421e-01 4.4200001e+01 
1.9279444e-01 4.4799727e-01 4.4200001e+01 
-9.2261828e-02 7.6722860e-01 4.3470158e+01 
-1.4701239e-03 6.7547697e-01 4.3552124e+01 
-1.9517080e-01 8.4621930e-01 4.3403992e+01 
-3.1956279e-01 9.1811794e-01 4.3368977e+01 
-3.9574999e-01 8.5323322e-01 4.3367252e+01 
-1.7830023e-01 6.4416617e-01 4.3464752e+01 
-6.7131944e-02 5.7555372e-01 4.3547829e+01 
-2.8202194e-01 7.2500783e-01 4.3397518e+01 
-4.3632844e-01 9.6406585e-01 4.3303261e+01 
1.5138821e-01 5.3037512e-01 4.3609200e+01 
1.2119007e-01 4.7490793e-01 4.3606068e+01 
-8.7566733e-02 7.6566672e-01 4.3329563e+01 
-1.7495437e-01 6.4045686e-01 4.3323273e+01 
-3.1819177e-01 9.1839045e-01 4.3237537e+01 
-3.9568463e-01 8.5271639e-01 4.3235813e+01 
2.2269404e-02 6.5294570e-01 4.3398811e+01 
-1.9201367e-01 8.4610778e-01 4.3262066e+01 
-3.8899176e-02 5.5709696e-01 4.3393635e+01 
-2.8052819e-01 7.2267252e-01 4.3254715e+01 
3.7877345e-01 3.8273901e-01 4.4200001e+01 
-4.3632776e-01 9.6406174e-01 4.3171322e+01 
3.9241230e-01 3.7329337e-01 4.3965439e+01 
1.0283732e-02 6.6872352e-01 4.3271511e+01 
-5.6385640e-02 5.6585240e-01 4.3265472e+01 
-8.2753494e-02 7.6403379e-01 4.3186119e+01 
-4.0345609e-01 8.6371827e-01 4.3104889e+01 
-3.1680310e-01 9.1865683e-01 4.3105087e+01 
-1.7150842e-01 6.3665158e-01 4.3179005e+01 
-1.8879703e-01 8.4598809e-01 4.3117241e+01 
-2.7900568e-01 7.2029078e-01 4.3109074e+01 
4.0610775e-01 3.6380205e-01 4.3729839e+01 
1.6776134e-01 5.1882964e-01 4.3331150e+01 
-4.3632707e-01 9.6405768e-01 4.3038357e+01 
1.4031014e-01 4.6124566e-01 4.3307755e+01 
3.4952711e-02 6.4519531e-01 4.3111935e+01 
-7.7818394e-02 7.6232505e-01 4.3039719e+01 
-3.1539652e-01 9.1891652e-01 4.2971603e+01 
-3.9551663e-01 8.5160977e-01 4.2969879e+01 
-2.6899155e-02 5.4666573e-01 4.3105160e+01 
-1.6795819e-01 6.3274628e-01 4.3031849e+01 
-1.8551964e-01 8.4585863e-01 4.2969406e+01 
4.1985780e-01 3.5425979e-01 4.3493168e+01 
-2.7745360e-01 7.1786088e-01 4.2960495e+01 
-4.3632638e-01 9.6405357e-01 4.2904346e+01 
2.2723136e-02 6.6139150e-01 4.2979332e+01 
-4.4916678e-02 5.5559248e-01 4.2971806e+01 
-3.1397179e-01 9.1916907e-01 4.2837063e+01 
-3.9541367e-01 8.5101974e-01 4.2835335e+01 
-7.2757579e-02 7.6053542e-01 4.2890255e+01 
-1.6429928e-01 6.2873662e-01 4.2881699e+01 
1.8463810e-01 5.0694346e-01 4.3035332e+01 
-1.8218029e-01 8.4571803e-01 4.2818455e+01 
1.5503895e-01 4.5003417e-01 4.3027725e+01 
-2.7587104e-01 7.1538109e-01 4.2808868e+01 
4.3366045e-01 3.4466109e-01 4.3255390e+01 
-4.3632573e-01 9.6404958e-01 4.2769268e+01 
-3.8429454e-01 8.3484912e-01 4.2710606e+01 
-3.1252861e-01 9.1941386e-01 4.2701439e+01 
4.8404284e-02 6.3678014e-01 4.2813030e+01 
-1.4070326e-02 5.3562075e-01 4.2804932e+01 
-6.7567028e-02 7.5865942e-01 4.2737610e+01 
-1.6052702e-01 6.2461799e-01 4.2728443e+01 
-1.7877772e-01 8.4556442e-01 4.2664265e+01 
-4.3632504e-01 9.6404558e-01 4.2633099e+01 
-2.7425703e-01 7.1284944e-01 4.2654083e+01 
4.4751364e-01 3.3500037e-01 4.3016472e+01 
3.5901129e-02 6.5341437e-01 4.2674721e+01 
-3.7959340e-01 8.2794034e-01 4.2568317e+01 
-3.1106678e-01 9.1965032e-01 4.2564713e+01 
-3.2659348e-02 5.4472327e-01 4.2665997e+01 
2.0396979e-01 4.9291667e-01 4.2740131e+01 
-6.2242586e-02 7.5669110e-01 4.2581669e+01 
1.7765003e-01 4.3475360e-01 4.2732578e+01 
-1.5663649e-01 6.2038553e-01 4.2571964e+01 
-4.3632439e-01 9.6404165e-01 4.2495808e+01 
-1.7531081e-01 8.4539592e-01 4.2506718e+01 
-2.7261066e-01 7.1026409e-01 4.2496017e+01 
-3.0958602e-01 9.1987789e-01 4.2426853e+01 
-3.7859210e-01 8.2613736e-01 4.2421188e+01 
4.6141517e-01 3.2527190e-01 4.2776375e+01 
6.2686495e-02 6.2762415e-01 4.2501175e+01 
-3.3570320e-04 5.2390522e-01 4.2492062e+01 
-5.6779940e-02 7.5462401e-01 4.2422298e+01 
-4.3632373e-01 9.6403772e-01 4.2357380e+01 
-1.5262254e-01 6.1603409e-01 4.2412144e+01 
-1.7177837e-01 8.4521037e-01 4.2345684e+01 
-2.7093092e-01 7.0762289e-01 4.2334549e+01 
-3.0808610e-01 9.2009580e-01 4.2287842e+01 
-3.8275370e-01 8.3137155e-01 4.2275047e+01 
4.9876589e-02 6.4471585e-01 4.2356720e+01 
-1.9539909e-02 5.3318781e-01 4.2347118e+01 
-4.3632311e-01 9.6403396e-01 4.2217781e+01 
2.1959943e-01 4.8236796e-01 4.2385345e+01 
-5.1174615e-02 7.5245124e-01 4.2259373e+01 
1.9034323e-01 4.2346162e-01 4.2378918e+01 
-1.4847966e-01 6.1155808e-01 4.2248856e+01 
4.7536272e-01 3.1546980e-01 4.2535065e+01 
-1.6817927e-01 8.4500539e-01 4.2181026e+01 
-2.6921678e-01 7.0492369e-01 4.2169544e+01 
-3.0656675e-01 9.2030340e-01 4.2147648e+01 
-3.9470181e-01 8.4769493e-01 4.2145920e+01 
7.7868804e-02 6.1763972e-01 4.2175373e+01 
-4.3632248e-01 9.6403021e-01 4.2076988e+01 
1.4390758e-02 5.1145434e-01 4.2165581e+01 
-4.5421973e-02 7.5016522e-01 4.2092751e+01 
-1.4420210e-01 6.0695171e-01 4.2081959e+01 
-3.0502778e-01 9.2049998e-01 4.2006248e+01 
-4.0175444e-01 8.5747409e-01 4.2004128e+01 
-1.6451253e-01 8.4477836e-01 4.2012604e+01 
4.8935395e-01 3.0558801e-01 4.2292507e+01 
-2.6746723e-01 7.0216429e-01 4.2000870e+01 
6.4714879e-02 6.3520777e-01 4.2024277e+01 
-4.3632188e-01 9.6402657e-01 4.1934975e+01 
-5.4755262e-03 5.2092212e-01 4.2014156e+01 
-2.3078828e-01 8.1064087e-01 4.1931458e+01 
2.3550548e-01 4.7116494e-01 4.2073269e+01 
2.0610523e-01 4.1123796e-01 4.2066772e+01 
-3.9517213e-02 7.4775779e-01 4.1922287e+01 
-1.3978374e-01 6.0220873e-01 4.1911320e+01 
-3.0346894e-01 9.2068475e-01 4.1863613e+01 
-3.9432141e-01 8.4618556e-01 4.1861881e+01 
-1.6077711e-01 8.4452641e-01 4.1840263e+01 
-2.6568118e-01 6.9934219e-01 4.1828377e+01 
-4.3632129e-01 9.6402299e-01 4.1791718e+01 
5.0338638e-01 2.9562023e-01 4.2048656e+01 
9.4028555e-02 6.0672593e-01 4.1834507e+01 
3.0205652e-02 4.9819478e-01 4.1824417e+01 
-3.8116732e-01 8.2744831e-01 4.1725647e+01 
-3.0189002e-01 9.2085695e-01 4.1719719e+01 
-3.3455357e-02 7.4522001e-01 4.1747829e+01 
-1.3521814e-01 5.9732240e-01 4.1736786e+01 
-4.3632072e-01 9.6401960e-01 4.1647179e+01 
-1.5697217e-01 8.4424627e-01 4.1663853e+01 
-2.6385748e-01 6.9645494e-01 4.1651920e+01 
8.0488607e-02 6.2478805e-01 4.1676235e+01 
2.6870471e-01 4.4547972e-01 4.1752304e+01 
9.6269641e-03 5.0785345e-01 4.1665993e+01 
2.4764967e-01 3.8646612e-01 4.1743168e+01 
-3.0029076e-01 9.2101562e-01 4.1574532e+01 
-3.9388368e-01 8.4456980e-01 4.1572796e+01 
5.1745731e-01 2.8556010e-01 4.1803486e+01 
-2.7231261e-02 7.4254233e-01 4.1569210e+01 
-1.3049847e-01 5.9228569e-01 4.1558201e+01 
-4.3632016e-01 9.6401632e-01 4.1501339e+01 
-1.5309690e-01 8.4393430e-01 4.1483204e+01 
-2.6199502e-01 6.9349992e-01 4.1471333e+01 
-2.9867104e-01 9.2115986e-01 4.1428024e+01 
-3.9364263e-01 8.4372103e-01 4.1426289e+01 
1.1125199e-01 5.9476525e-01 4.1477348e+01 
4.7217656e-02 4.8404291e-01 4.1467384e+01 
-4.3631962e-01 9.6401310e-01 4.1354160e+01 
-2.0839609e-02 7.3971421e-01 4.1386261e+01 
-1.2561750e-01 5.8709091e-01 4.1375404e+01 
5.3156406e-01 2.7540097e-01 4.1556946e+01 
-1.4915068e-01 8.4358656e-01 4.1298138e+01 
-2.9703063e-01 9.2128879e-01 4.1280167e+01 
-3.9338648e-01 8.4284443e-01 4.1278431e+01 
-2.6009262e-01 6.9047421e-01 4.1286449e+01 
2.9365057e-01 4.2687622e-01 4.1391586e+01 
9.7278498e-02 6.1333776e-01 4.1311302e+01 
2.7470219e-01 3.6807936e-01 4.1382729e+01 
2.5872495e-02 4.9389899e-01 4.1301384e+01 
-4.3631911e-01 9.6401012e-01 4.1205620e+01 
-1.4274905e-02 7.3672432e-01 4.1198803e+01 
-1.2056758e-01 5.8173001e-01 4.1188221e+01 
-2.9536936e-01 9.2140132e-01 4.1130928e+01 
[...]
POINT_DATA 4496
FIELD FieldData 5
DISPLACEMENT 3 4496  float
5.6858826e-01 5.2080792e-01 -1.1387030e-02 
5.6529105e-01 5.1747882e-01 -1.1299350e-02 
5.6862175e-01 5.2090997e-01 -1.3049020e-02 
5.6874722e-01 5.2088881e-01 -9.4517097e-03 
5.6373316e-01 5.1583105e-01 -9.4372630e-03 
5.6366664e-01 5.1590610e-01 -1.2898332e-02 
5.6197089e-01 5.1412648e-01 -1.1211050e-02 
5.6867850e-01 5.2101272e-01 -1.4156821e-02 
5.6886071e-01 5.2099437e-01 -9.2347283e-03 
5.6535083e-01 5.1765585e-01 -1.4140600e-02 
5.6550467e-01 5.1760501e-01 -9.1253519e-03 
5.6040180e-01 5.1246703e-01 -9.3383994e-03 
5.6033385e-01 5.1254272e-01 -1.2851535e-02 
5.6196123e-01 5.1423639e-01 -1.4124015e-02 
5.6874496e-01 5.2110523e-01 -1.4777066e-02 
5.6208795e-01 5.1415443e-01 -9.0140421e-03 
5.5862713e-01 5.1075041e-01 -1.1122095e-02 
5.6893349e-01 5.2108842e-01 -9.7360369e-03 
5.6037557e-01 5.1247638e-01 -1.0209018e-02 
5.6462014e-01 5.1694793e-01 -1.4848151e-02 
5.6477481e-01 5.1689905e-01 -9.8598748e-03 
5.5697733e-01 5.0915545e-01 -1.2804330e-02 
5.5704665e-01 5.0907904e-01 -9.2386240e-03 
5.5850768e-01 5.1075238e-01 -1.4107008e-02 
5.5860865e-01 5.1064062e-01 -8.9007076e-03 
5.6883961e-01 5.2120459e-01 -1.4870118e-02 
5.6022257e-01 5.1250875e-01 -1.4758240e-02 
5.5525947e-01 5.0735021e-01 -1.1032438e-02 
5.6899482e-01 5.2119368e-01 -1.0792816e-02 
5.6035507e-01 5.1242656e-01 -9.4976909e-03 
5.5498785e-01 5.0720161e-01 -1.4089510e-02 
5.5359656e-01 5.0574374e-01 -1.2756762e-02 
5.5366737e-01 5.0566673e-01 -9.1379406e-03 
5.6201714e-01 5.1431960e-01 -1.4778099e-02 
5.5506456e-01 5.0706148e-01 -8.7853633e-03 
5.5673558e-01 5.0899112e-01 -1.4743885e-02 
5.6213403e-01 5.1427460e-01 -1.0808391e-02 
5.6504804e-01 5.1737648e-01 -1.4773216e-02 
5.5684340e-01 5.0888062e-01 -9.3938923e-03 
5.6515157e-01 5.1734769e-01 -1.1531130e-02 
5.5186737e-01 5.0392544e-01 -1.0942167e-02 
5.6894803e-01 5.2131641e-01 -1.4925922e-02 
5.5879796e-01 5.1107311e-01 -1.4788751e-02 
5.5900306e-01 5.1110464e-01 -1.0513789e-02 
5.6905210e-01 5.2131200e-01 -1.2266110e-02 
5.5139965e-01 5.0358188e-01 -1.4071439e-02 
5.5318123e-01 5.0540555e-01 -1.4728947e-02 
5.5019122e-01 5.0230730e-01 -1.2708792e-02 
5.5026335e-01 5.0222957e-01 -9.0362616e-03 
5.5145359e-01 5.0341487e-01 -8.6678769e-03 
5.5326593e-01 5.0526822e-01 -9.2884628e-03 
5.6533802e-01 5.1768607e-01 -1.5188682e-02 
5.5504745e-01 5.0728726e-01 -1.4715115e-02 
5.6538123e-01 5.1765221e-01 -1.3303737e-02 
5.4845035e-01 5.0047553e-01 -1.0851081e-02 
5.5511367e-01 5.0718766e-01 -1.0651465e-02 
5.5996597e-01 5.1225972e-01 -1.4996674e-02 
5.6001568e-01 5.1221621e-01 -1.2710949e-02 
5.6905669e-01 5.2145094e-01 -1.5530021e-02 
5.6910831e-01 5.2145088e-01 -1.4260817e-02 
5.4955727e-01 5.0174993e-01 -1.4713359e-02 
5.5181199e-01 5.0402445e-01 -1.4727589e-02 
5.4774070e-01 4.9989083e-01 -1.4052769e-02 
5.4676062e-01 4.9884552e-01 -1.2660379e-02 
5.4683429e-01 4.9876720e-01 -8.9336941e-03 
5.4962045e-01 5.0158733e-01 -9.1815358e-03 
5.5186421e-01 5.0389791e-01 -1.0346068e-02 
5.4777336e-01 4.9969858e-01 -8.5482933e-03 
5.4500800e-01 4.9700034e-01 -1.0759352e-02 
5.5346650e-01 5.0570196e-01 -1.4943114e-02 
5.5347371e-01 5.0561655e-01 -1.2674626e-02 
5.4586142e-01 4.9802178e-01 -1.4696963e-02 
5.4590446e-01 4.9783552e-01 -9.0728365e-03 
5.4330450e-01 4.9535823e-01 -1.2611484e-02 
5.4337960e-01 4.9527928e-01 -8.8300835e-03 
5.4780442e-01 4.9997929e-01 -1.4647688e-02 
5.4400855e-01 4.9612615e-01 -1.4033352e-02 
5.4782587e-01 4.9983132e-01 -1.0492359e-02 
5.4402173e-01 4.9591023e-01 -8.4265461e-03 
5.6913722e-01 5.2161020e-01 -1.7426290e-02 
5.4153979e-01 4.9349916e-01 -1.0667037e-02 
5.6297666e-01 5.1539385e-01 -1.7370855e-02 
5.4443932e-01 4.9658597e-01 -1.4661429e-02 
5.4444975e-01 4.9641365e-01 -1.0175287e-02 
5.4209113e-01 4.9421874e-01 -1.4679677e-02 
5.3992522e-01 4.9179581e-01 -8.8261999e-03 
5.3982210e-01 4.9184451e-01 -1.2562341e-02 
5.4211599e-01 4.9401060e-01 -8.9626424e-03 
5.4020071e-01 4.9228546e-01 -1.4013038e-02 
5.4019624e-01 4.9204767e-01 -8.3023449e-03 
5.5678862e-01 5.0914985e-01 -1.7314879e-02 
5.4616553e-01 4.9833551e-01 -1.4873602e-02 
5.3804517e-01 4.8997158e-01 -1.0574095e-02 
5.4564160e-01 4.9771494e-01 -1.2607715e-02 
5.4026920e-01 4.9237698e-01 -1.4575074e-02 
5.3824395e-01 4.9033836e-01 -1.4661371e-02 
5.3631359e-01 4.8830459e-01 -1.2512469e-02 
5.3639162e-01 4.8822427e-01 -8.6203478e-03 
5.4025221e-01 4.9218729e-01 -1.0331174e-02 
5.3825212e-01 4.9011007e-01 -8.8505186e-03 
5.3631473e-01 4.8836598e-01 -1.3991851e-02 
5.5057263e-01 5.0287747e-01 -1.7258031e-02 
5.3629422e-01 4.8810810e-01 -8.1761144e-03 
5.3452408e-01 4.8641726e-01 -1.0480095e-02 
5.3676546e-01 4.8884425e-01 -1.4589541e-02 
5.3674078e-01 4.8863325e-01 -1.0001531e-02 
5.3277785e-01 4.8473749e-01 -1.2462202e-02 
5.3285772e-01 4.8465690e-01 -8.5142581e-03 
5.3431720e-01 4.8637798e-01 -1.4641903e-02 
5.3431088e-01 4.8613155e-01 -8.7370109e-03 
5.3839946e-01 4.9050033e-01 -1.4795681e-02 
5.3234768e-01 4.8436508e-01 -1.3969528e-02 
5.3829032e-01 4.9029735e-01 -1.2503177e-02 
5.3231353e-01 4.8408967e-01 -8.0475090e-03 
5.4432857e-01 4.9657726e-01 -1.7200477e-02 
5.3097570e-01 4.8283622e-01 -1.0385674e-02 
5.2960050e-01 4.8136437e-01 -8.2920669e-03 
5.2921504e-01 4.8114365e-01 -1.2411258e-02 
5.3242147e-01 4.8446056e-01 -1.4496349e-02 
5.3237319e-01 4.8423663e-01 -1.0168217e-02 
5.3030801e-01 4.8233509e-01 -1.4621249e-02 
5.3028893e-01 4.8207238e-01 -8.6213611e-03 
5.2829748e-01 4.8028094e-01 -1.3946160e-02 
5.2739990e-01 4.7922760e-01 -1.0290327e-02 
5.2825075e-01 4.7998857e-01 -7.9161851e-03 
5.3805602e-01 4.9024868e-01 -1.7141545e-02 
5.2876943e-01 4.8077899e-01 -1.4511026e-02 
5.2587241e-01 4.7759995e-01 -8.1342272e-03 
5.2562439e-01 4.7752199e-01 -1.2359509e-02 
5.2871710e-01 4.8053709e-01 -9.8248953e-03 
5.3065515e-01 4.8268884e-01 -1.4726103e-02 
5.2621412e-01 4.7820666e-01 -1.4599455e-02 
5.3054780e-01 4.8249027e-01 -1.2488277e-02 
5.2618420e-01 4.7792998e-01 -8.5045760e-03 
5.2379608e-01 4.7559106e-01 -1.0193770e-02 
5.2416021e-01 4.7610930e-01 -1.3921835e-02 
5.2410376e-01 4.7580346e-01 -7.7827596e-03 
5.2200514e-01 4.7387215e-01 -1.2307316e-02 
5.2201295e-01 4.7370520e-01 -8.0115674e-03 
5.3175592e-01 4.8389357e-01 -1.7081220e-02 
5.2423948e-01 4.7620845e-01 -1.4410423e-02 
5.2416772e-01 4.7595862e-01 -1.0003407e-02 
5.2203190e-01 4.7398999e-01 -1.4575688e-02 
5.2016360e-01 4.7192660e-01 -1.0096863e-02 
5.2199316e-01 4.7370151e-01 -8.3854590e-03 
5.1993346e-01 4.7184822e-01 -1.3895877e-02 
5.1986933e-01 4.7153085e-01 -7.6467674e-03 
5.1835757e-01 4.7019422e-01 -1.2254359e-02 
5.1817310e-01 4.6983320e-01 -7.9402868e-03 
5.2042848e-01 4.7236744e-01 -1.4424361e-02 
5.2035719e-01 4.7210407e-01 -9.6454648e-03 
5.1650250e-01 4.6823406e-01 -9.9992286e-03 
5.2134800e-01 4.7330168e-01 -1.4609934e-02 
5.1775861e-01 4.6968225e-01 -1.4550149e-02 
5.2127177e-01 4.7313154e-01 -1.2278491e-02 
5.1771343e-01 4.6938446e-01 -8.2648136e-03 
5.2542490e-01 4.7750780e-01 -1.7018922e-02 
5.1561403e-01 4.6749446e-01 -1.3868384e-02 
5.1554435e-01 4.6716794e-01 -7.5082723e-03 
5.1468104e-01 4.6648797e-01 -1.2200568e-02 
5.1476830e-01 4.6640465e-01 -7.9688989e-03 
5.1569986e-01 4.6759826e-01 -1.4316484e-02 
5.1281226e-01 4.6451232e-01 -9.9010980e-03 
5.1561296e-01 4.6733147e-01 -9.8376228e-03 
5.1339102e-01 4.6528035e-01 -1.4522766e-02 
5.1334208e-01 4.6497548e-01 -8.1418315e-03 
5.1097429e-01 4.6275136e-01 -1.2147082e-02 
5.1104087e-01 4.6264902e-01 -7.9452051e-03 
5.1119846e-01 4.6304476e-01 -1.3839008e-02 
5.1906550e-01 4.7109428e-01 -1.6954923e-02 
5.1112646e-01 4.6271220e-01 -7.3667052e-03 
5.1171887e-01 4.6358752e-01 -1.4328898e-02 
5.0909138e-01 4.6076071e-01 -9.8026413e-03 
5.1163721e-01 4.6331173e-01 -9.4636949e-03 
5.0914359e-01 4.6086690e-01 -1.1142827e-02 
5.1317155e-01 4.6505833e-01 -1.4513503e-02 
5.1309460e-01 4.6488711e-01 -1.2154627e-02 
5.0892580e-01 4.6078148e-01 -1.4493438e-02 
5.0887543e-01 4.6047211e-01 -8.0169458e-03 
5.0723767e-01 4.5898569e-01 -1.2092628e-02 
5.0732780e-01 4.5890141e-01 -7.7451859e-03 
5.0668347e-01 4.5849624e-01 -1.3808570e-02 
5.0661129e-01 4.5815870e-01 -7.2219865e-03 
5.0533992e-01 4.5697859e-01 -9.7026667e-03 
5.1267838e-01 4.6465531e-01 -1.6889285e-02 
5.0677663e-01 4.5860529e-01 -1.4213286e-02 
5.0668442e-01 4.5833188e-01 -9.6705798e-03 
5.0378263e-01 4.5532149e-01 -7.5022979e-03 
5.0347012e-01 4.5518947e-01 -1.2036723e-02 
5.0435877e-01 4.5618039e-01 -1.4462017e-02 
5.0430959e-01 4.5586941e-01 -7.8896945e-03 
5.0155747e-01 4.5316586e-01 -9.6012335e-03 
5.0206542e-01 4.5384434e-01 -1.3775881e-02 
5.0199568e-01 4.5350578e-01 -7.0755240e-03 
5.0261313e-01 4.5441249e-01 -1.4223215e-02 
5.0478607e-01 4.5661095e-01 -1.4482413e-02 
5.0253040e-01 4.5413420e-01 -9.2791971e-03 
5.0463575e-01 4.5637575e-01 -1.2368716e-02 
4.9967086e-01 4.5136255e-01 -1.1980096e-02 
4.9976468e-01 4.5127693e-01 -7.5165736e-03 
5.0626493e-01 4.5819324e-01 -1.6821474e-02 
4.9968696e-01 4.5147505e-01 -1.4427762e-02 
4.9964237e-01 4.5116559e-01 -7.7619213e-03 
4.9774426e-01 4.4932392e-01 -9.4993925e-03 
4.9734032e-01 4.4908667e-01 -1.3740433e-02 
4.9727637e-01 4.4875008e-01 -6.9265384e-03 
4.9584103e-01 4.4750527e-01 -1.1922408e-02 
4.9593630e-01 4.4742048e-01 -7.4013886e-03 
4.9744144e-01 4.4920176e-01 -1.4098425e-02 
4.9735546e-01 4.4893378e-01 -9.5024426e-03 
4.9389926e-01 4.4545150e-01 -9.3978290e-03 
4.9490637e-01 4.4666240e-01 -1.4390409e-02 
4.9486914e-01 4.4635704e-01 -7.6307324e-03 
4.9981910e-01 4.5169923e-01 -1.6749922e-02 
4.9250495e-01 4.4421950e-01 -1.3702904e-02 
4.9197900e-01 4.4361785e-01 -1.1864956e-02 
4.9207464e-01 4.4353172e-01 -7.2847581e-03 
4.9244916e-01 4.4388738e-01 -6.7724450e-03 
4.9536693e-01 4.4712543e-01 -1.4394508e-02 
4.9308217e-01 4.4481432e-01 -1.4104877e-02 
4.9522275e-01 4.4689983e-01 -1.2346611e-02 
4.9301195e-01 4.4454700e-01 -9.0926802e-03 
4.9002138e-01 4.4154608e-01 -9.2947632e-03 
4.9001384e-01 4.4173706e-01 -1.4351180e-02 
4.8998544e-01 4.4143954e-01 -7.4975020e-03 
4.8808333e-01 4.3969598e-01 -1.1806427e-02 
4.8818207e-01 4.3961045e-01 -7.1677286e-03 
4.8755425e-01 4.3923751e-01 -1.3662672e-02 
4.8751083e-01 4.3891385e-01 -6.6171489e-03 
4.9334627e-01 4.4518134e-01 -1.6676096e-02 
4.8611045e-01 4.3760824e-01 -9.1916705e-03 
4.8766482e-01 4.3935916e-01 -1.3971933e-02 
4.8759532e-01 4.3910775e-01 -9.3334820e-03 
4.8415521e-01 4.3574378e-01 -1.1747233e-02 
4.8425430e-01 4.3565643e-01 -7.0496397e-03 
4.8500276e-01 4.3669578e-01 -1.4307021e-02 
4.8498935e-01 4.3640947e-01 -7.3633422e-03 
4.8216611e-01 4.3363839e-01 -9.0862438e-03 
4.8248541e-01 4.3413785e-01 -1.3619519e-02 
4.8245588e-01 4.3382663e-01 -6.4575914e-03 
4.8549962e-01 4.3719444e-01 -1.4303655e-02 
4.8537388e-01 4.3699080e-01 -1.2333388e-02 
4.8259929e-01 4.3426237e-01 -1.3900790e-02 
4.8684636e-01 4.3863916e-01 -1.6600082e-02 
4.8019323e-01 4.3175748e-01 -1.1685221e-02 
4.8029485e-01 4.3167180e-01 -6.9316304e-03 
4.8254380e-01 4.3402606e-01 -9.2489012e-03 
4.7987249e-01 4.3153465e-01 -1.4260548e-02 
4.7987431e-01 4.3126318e-01 -7.2259028e-03 
4.7818875e-01 4.2963743e-01 -8.9816926e-03 
4.7729203e-01 4.2891642e-01 -1.3573417e-02 
4.7728312e-01 4.2862117e-01 -6.2951953e-03 
4.7619846e-01 4.2774203e-01 -1.1623398e-02 
4.7630003e-01 4.2765415e-01 -6.8119881e-03 
4.7741213e-01 4.2904451e-01 -1.3827666e-02 
4.7574350e-01 4.2716309e-01 -8.5701859e-03 
4.7737405e-01 4.2882654e-01 -9.1649415e-03 
4.7417748e-01 4.2560378e-01 -8.8745970e-03 
4.8031235e-01 4.3206283e-01 -1.6519325e-02 
4.7741053e-01 4.2905426e-01 -1.4134171e-02 
4.7461542e-01 4.2625016e-01 -1.4206810e-02 
4.7737879e-01 4.2893639e-01 -1.1893780e-02 
4.7463876e-01 4.2599776e-01 -7.0867087e-03 
4.7216862e-01 4.2369080e-01 -1.1559156e-02 
4.7227225e-01 4.2360491e-01 -6.6912104e-03 
4.7197369e-01 4.2357102e-01 -1.3520427e-02 
4.7198477e-01 4.2329451e-01 -6.1327452e-03 
4.7013208e-01 4.2153773e-01 -8.7689199e-03 
4.7209749e-01 4.2370144e-01 -1.3750715e-02 
4.7207958e-01 4.2350602e-01 -9.0804156e-03 
4.6922997e-01 4.2083833e-01 -1.4151317e-02 
4.6810493e-01 4.1960719e-01 -1.1495606e-02 
4.6820930e-01 4.1952094e-01 -6.5694624e-03 
4.6927637e-01 4.2060879e-01 -6.9445088e-03 
4.7375131e-01 4.2546639e-01 -1.6437862e-02 
4.6652195e-01 4.1809440e-01 -1.3468127e-02 
4.6605071e-01 4.1743609e-01 -8.6614089e-03 
4.7016045e-01 4.2171520e-01 -1.2666691e-02 
4.7008625e-01 4.2170611e-01 -1.4381558e-02 
4.6655953e-01 4.1784278e-01 -5.9623807e-03 
4.6665072e-01 4.1822857e-01 -1.3668513e-02 
4.6665561e-01 4.1805676e-01 -8.9965723e-03 
4.6400389e-01 4.1548890e-01 -1.1431349e-02 
4.6410969e-01 4.1540223e-01 -6.4469092e-03 
4.6370849e-01 4.1529268e-01 -1.4091023e-02 
4.6378368e-01 4.1509023e-01 -6.8009058e-03 
4.6193168e-01 4.1329858e-01 -8.5529005e-03 
4.6716306e-01 4.1884464e-01 -1.6349005e-02 
4.6093041e-01 4.1248095e-01 -1.3411683e-02 
4.6100006e-01 4.1225839e-01 -5.7882243e-03 
4.5986930e-01 4.1133940e-01 -1.1362030e-02 
4.5997557e-01 4.1125083e-01 -6.3253711e-03 
4.6355879e-01 4.1508391e-01 -1.2564057e-02 
4.6348700e-01 4.1507676e-01 -1.4291595e-02 
4.6098018e-01 4.1253421e-01 -1.3580266e-02 
4.6096545e-01 4.1234377e-01 -8.8760164e-03 
4.5862696e-01 4.1000283e-01 -9.0359943e-03 
4.5778313e-01 4.0913495e-01 -8.4421663e-03 
4.5809612e-01 4.0965977e-01 -1.4027790e-02 
4.5823374e-01 4.0951699e-01 -6.6171745e-03 
4.5573619e-01 4.0719065e-01 -1.1253917e-02 
4.5584491e-01 4.0710601e-01 -6.2178271e-03 
4.5529696e-01 4.0682980e-01 -1.3346472e-02 
4.6054730e-01 4.1219974e-01 -1.6256562e-02 
4.5545849e-01 4.0669718e-01 -5.6195515e-03 
4.5366782e-01 4.0500635e-01 -8.3356109e-03 
4.5522356e-01 4.0675831e-01 -1.3504736e-02 
4.5536599e-01 4.0671989e-01 -8.6202705e-03 
4.5694748e-01 4.0844840e-01 -1.2471567e-02 
4.5687822e-01 4.0844318e-01 -1.4202250e-02 
4.5313784e-01 4.0449539e-01 -8.8932663e-03 
4.5163682e-01 4.0307996e-01 -1.1145937e-02 
4.5251462e-01 4.0406120e-01 -1.3964152e-02 
4.5174375e-01 4.0299240e-01 -6.1108023e-03 
4.5274121e-01 4.0400687e-01 -6.4164042e-03 
4.4958478e-01 4.0091121e-01 -8.2267337e-03 
4.4976860e-01 4.0128776e-01 -1.3279881e-02 
4.5001125e-01 4.0123481e-01 -5.4555046e-03 
4.5393619e-01 4.0556484e-01 -1.6160246e-02 
4.4969723e-01 4.0121853e-01 -1.3443489e-02 
4.4992468e-01 4.0125790e-01 -8.3609680e-03 
4.4756669e-01 3.9899889e-01 -1.1039149e-02 
4.4767508e-01 3.9891443e-01 -6.0054432e-03 
4.5016709e-01 4.0169972e-01 -1.3728977e-02 
4.5027208e-01 4.0171948e-01 -1.1397548e-02 
4.4703603e-01 3.9857218e-01 -1.3899286e-02 
4.4733897e-01 3.9858839e-01 -6.2201954e-03 
4.4635761e-01 3.9769870e-01 -8.7116305e-03 
4.4553301e-01 3.9685166e-01 -8.1207016e-03 
4.4465500e-01 3.9586636e-01 -5.2932771e-03 
4.4433847e-01 3.9584857e-01 -1.3211590e-02 
4.4353020e-01 3.9495355e-01 -1.0930717e-02 
4.4363895e-01 3.9487174e-01 -5.9022778e-03 
4.4457102e-01 3.9589024e-01 -8.1081605e-03 
4.4426858e-01 3.9578176e-01 -1.3384232e-02 
4.4734383e-01 3.9895794e-01 -1.6063711e-02 
4.4151270e-01 3.9282548e-01 -8.0172103e-03 
4.4202626e-01 3.9326361e-01 -6.0289530e-03 
4.4165373e-01 3.9318478e-01 -1.3833575e-02 
4.4370463e-01 3.9524037e-01 -1.4020014e-02 
4.4326359e-01 3.9470261e-01 -1.1419545e-02 
4.3952465e-01 3.9094299e-01 -1.0823506e-02 
4.3955818e-01 3.9078757e-01 -5.8400715e-03 
4.3938601e-01 3.9058694e-01 -5.1293327e-03 
4.3900701e-01 3.9051205e-01 -1.3147255e-02 
4.3789592e-01 3.8923165e-01 -8.6495951e-03 
4.3752185e-01 3.8882953e-01 -7.9111988e-03 
4.3930268e-01 3.9060989e-01 -7.8636743e-03 
4.3825826e-01 3.8976026e-01 -1.3175775e-02 
4.3679678e-01 3.8802895e-01 -5.8462094e-03 
4.3636885e-01 3.8789508e-01 -1.3765858e-02 
4.3554652e-01 3.8695997e-01 -1.0714125e-02 
4.4077653e-01 3.9238423e-01 -1.5966194e-02 
4.3565428e-01 3.8687989e-01 -5.6959060e-03 
4.3491584e-01 3.8624108e-01 -8.3425688e-03 
4.3726060e-01 3.8869491e-01 -1.1301190e-02 
4.3356121e-01 3.8486773e-01 -7.8081177e-03 
4.3419784e-01 3.8539875e-01 -4.9793608e-03 
4.3376896e-01 3.8527068e-01 -1.3074588e-02 
4.3714586e-01 3.8867843e-01 -1.3922759e-02 
4.3412110e-01 3.8542393e-01 -7.6225251e-03 
4.3370226e-01 3.8520816e-01 -1.3259724e-02 
4.3159932e-01 3.8301226e-01 -1.0608125e-02 
4.3170783e-01 3.8293305e-01 -5.5943853e-03 
4.3165347e-01 3.8288438e-01 -5.6634219e-03 
4.3117657e-01 3.8270274e-01 -1.3695157e-02 
4.3007329e-01 3.8137484e-01 -7.5673023e-03 
4.2962828e-01 3.8093641e-01 -7.7056107e-03 
4.3422076e-01 3.8582629e-01 -1.5861446e-02 
4.2909524e-01 3.8029736e-01 -4.8235911e-03 
4.2862061e-01 3.8012531e-01 -1.3005061e-02 
4.3131021e-01 3.8271621e-01 -1.0450250e-02 
4.3089819e-01 3.8240543e-01 -1.3189979e-02 
4.2767921e-01 3.7909561e-01 -1.0500578e-02 
4.2902127e-01 3.8031921e-01 -7.3889722e-03 
4.2737114e-01 3.7859005e-01 -5.2542360e-03 
4.2855555e-01 3.8006517e-01 -1.3200096e-02 
4.2572218e-01 3.7703374e-01 -7.6059997e-03 
4.2658925e-01 3.7782031e-01 -5.4823370e-03 
4.2607287e-01 3.7760374e-01 -1.3623702e-02 
4.2389819e-01 3.7512988e-01 -5.3962739e-03 
4.2372924e-01 3.7513778e-01 -1.0115447e-02 
4.2407197e-01 3.7527776e-01 -4.6724416e-03 
4.2355648e-01 3.7506908e-01 -1.2933779e-02 
4.2768148e-01 3.7928686e-01 -1.5751543e-02 
4.2258421e-01 3.7394667e-01 -8.8262754e-03 
4.2400098e-01 3.7530255e-01 -7.1620350e-03 
4.2349425e-01 3.7500975e-01 -1.3140336e-02 
4.2184627e-01 3.7316343e-01 -7.5082956e-03 
4.2160389e-01 3.7284440e-01 -5.3121238e-03 
4.2407775e-01 3.7561440e-01 -1.3713624e-02 
4.2413589e-01 3.7560928e-01 -1.1994182e-02 
4.2053944e-01 3.7176803e-01 -5.0665974e-03 
4.2105141e-01 3.7258682e-01 -1.3548944e-02 
4.2027238e-01 3.7170976e-01 -1.0649176e-02 
4.2270848e-01 3.7408081e-01 -9.1104405e-03 
4.2202082e-01 3.7352964e-01 -1.2873128e-02 
4.1912419e-01 3.7033948e-01 -4.5273490e-03 
4.1858330e-01 3.7010351e-01 -1.2850300e-02 
4.1799986e-01 3.6932334e-01 -7.4097724e-03 
4.1905728e-01 3.7036237e-01 -6.9415653e-03 
4.1852227e-01 3.7004676e-01 -1.3079548e-02 
4.2116117e-01 3.7277457e-01 -1.5633671e-02 
4.1626975e-01 3.6750495e-01 -4.8708227e-03 
4.1603667e-01 3.6748514e-01 -1.0593433e-02 
4.1669616e-01 3.6794195e-01 -5.1438878e-03 
4.1611889e-01 3.6766782e-01 -1.3475579e-02 
4.1418150e-01 3.6551327e-01 -7.3108524e-03 
4.1757548e-01 3.6912575e-01 -1.3601360e-02 
4.1763064e-01 3.6911890e-01 -1.1887763e-02 
4.1425514e-01 3.6547777e-01 -4.3789204e-03 
4.1369089e-01 3.6522684e-01 -1.2774991e-02 
4.1419053e-01 3.6550319e-01 -6.7257336e-03 
4.1194841e-01 3.6340317e-01 -1.0413804e-02 
4.1315150e-01 3.6469489e-01 -1.3105374e-02 
4.1385481e-01 3.6524227e-01 -8.7827677e-03 
4.1143051e-01 3.6267605e-01 -4.7401893e-03 
4.1186258e-01 3.6311960e-01 -4.9789767e-03 
4.1126809e-01 3.6283043e-01 -1.3395923e-02 
4.1038787e-01 3.6173198e-01 -7.2138351e-03 
4.1466662e-01 3.6629310e-01 -1.5509848e-02 
4.0920463e-01 3.6059290e-01 -8.3382241e-03 
4.0945646e-01 3.6069676e-01 -4.2381105e-03 
4.1103464e-01 3.6257190e-01 -1.2660888e-02 
4.0856922e-01 3.6001444e-01 -9.7499071e-03 
4.0887997e-01 3.6042848e-01 -1.2695913e-02 
4.0861794e-01 3.5988590e-01 -5.0149732e-03 
4.0939564e-01 3.6072120e-01 -6.5152152e-03 
4.1109586e-01 3.6266237e-01 -1.3483672e-02 
4.1114938e-01 3.6265394e-01 -1.1774884e-02 
4.0882280e-01 3.6037669e-01 -1.2952303e-02 
4.0698004e-01 3.5823625e-01 -4.4430112e-03 
4.0662304e-01 3.5798043e-01 -7.1189865e-03 
4.0710008e-01 3.5837454e-01 -4.8139780e-03 
4.0649548e-01 3.5807461e-01 -1.3316723e-02 
4.0543765e-01 3.5672078e-01 -4.9779764e-03 
4.0475482e-01 3.5622108e-01 -9.8519800e-03 
4.0473038e-01 3.5598499e-01 -4.0980731e-03 
4.0414491e-01 3.5571411e-01 -1.2616736e-02 
4.0819114e-01 3.5983759e-01 -1.5384839e-02 
4.0467125e-01 3.5601211e-01 -6.3102446e-03 
4.0288374e-01 3.5425675e-01 -7.0229555e-03 
4.0362325e-01 3.5520309e-01 -1.2968259e-02 
4.0219533e-01 3.5347551e-01 -4.4478388e-03 
4.0429163e-01 3.5571951e-01 -8.7469574e-03 
4.0240806e-01 3.5370070e-01 -4.6575051e-03 
4.0196478e-01 3.5335568e-01 -7.3971953e-03 
4.0125525e-01 3.5275617e-01 -1.0287029e-02 
4.0463421e-01 3.5622659e-01 -1.3363822e-02 
4.0179917e-01 3.5339841e-01 -1.3236286e-02 
4.0468556e-01 3.5621697e-01 -1.1661202e-02 
4.0007219e-01 3.5135019e-01 -3.9647259e-03 
4.0158394e-01 3.5315540e-01 -1.2428349e-02 