# vtk DataFile Version 4.0
vtk output
ASCII
DATASET UNSTRUCTURED_GRID
POINTS 4496 float
-4.3633327e-01 9.6409470e-01 4.4200001e+01 
-4.3633258e-01 9.6409065e-01 4.4074627e+01 
-3.2152572e-01 9.1279918e-01 4.4200001e+01 
-3.8534868e-01 8.4052670e-01 4.4200001e+01 
-3.9589554e-01 8.5545403e-01 4.4010014e+01 
-3.2616228e-01 9.1667932e-01 4.4011734e+01 
-4.3633190e-01 9.6408653e-01 4.3948376e+01 
-2.1293370e-01 8.4677851e-01 4.4200001e+01 
-2.9042658e-01 7.3813015e-01 4.4200001e+01 
-2.1010752e-01 8.4669363e-01 4.4073502e+01 
-2.8908840e-01 7.3604190e-01 4.4072292e+01 
-3.9589015e-01 8.5505831e-01 4.3883316e+01 
-3.2487559e-01 9.1697580e-01 4.3885036e+01 
-2.0722924e-01 8.4660655e-01 4.3944645e+01 
-1.1981077e-01 7.7773046e-01 4.4200001e+01 
-2.8772619e-01 7.3391593e-01 4.3942276e+01 
-4.3633121e-01 9.6408242e-01 4.3821228e+01 
-1.9739023e-01 6.6468561e-01 4.4200001e+01 
-2.9444304e-01 7.8727525e-01 4.3879974e+01 
-8.7554991e-02 7.5255024e-01 4.4042213e+01 
-1.6445170e-01 6.4084798e-01 4.4041008e+01 
-3.2357255e-01 9.1726828e-01 4.3757431e+01 
-3.9587301e-01 8.5463828e-01 4.3755711e+01 
-2.0429766e-01 8.4651643e-01 4.3813354e+01 
-2.8633916e-01 7.3175091e-01 4.3809875e+01 
-2.6899619e-02 6.8901783e-01 4.4200001e+01 
-1.0567340e-01 7.7152997e-01 4.3875790e+01 
-4.3633053e-01 9.6407831e-01 4.3693161e+01 
-8.7133333e-02 5.9509218e-01 4.4200001e+01 
-1.8777622e-01 6.5475601e-01 4.3873402e+01 
-2.0131156e-01 8.4642249e-01 4.3679543e+01 
-3.2225290e-01 9.1755641e-01 4.3628902e+01 
-3.9584404e-01 8.5419410e-01 4.3627178e+01 
-1.0114321e-03 6.6670936e-01 4.3939713e+01 
-2.8492665e-01 7.2954547e-01 4.3675007e+01 
-1.0131179e-01 7.7015632e-01 4.3743176e+01 
-6.0682178e-02 5.7631296e-01 4.3938457e+01 
3.9444737e-02 6.2338209e-01 4.4053139e+01 
-1.8470748e-01 6.5131217e-01 4.3739727e+01 
-7.0938184e-03 5.4737431e-01 4.4052326e+01 
-4.3632981e-01 9.6407413e-01 4.3564159e+01 
7.6947339e-02 5.8804804e-01 4.4200001e+01 
-1.2721874e-02 6.8194175e-01 4.3817982e+01 
-7.7214435e-02 5.8474159e-01 4.3819649e+01 
4.0195532e-02 5.2425718e-01 4.4200001e+01 
-1.9826968e-01 8.4632379e-01 4.3543118e+01 
-9.6842363e-02 7.6872379e-01 4.3607994e+01 
-3.2091641e-01 9.1783977e-01 4.3499420e+01 
-3.9580306e-01 8.5372573e-01 4.3497700e+01 
-2.8348783e-01 7.2729832e-01 4.3537586e+01 
-1.8155001e-01 6.4778340e-01 4.3603539e+01 
1.5678726e-01 5.2239102e-01 4.4060219e+01 
1.0298219e-02 6.6009766e-01 4.3674484e+01 
1.3250886e-01 4.7546524e-01 4.4058990e+01 
-4.3632913e-01 9.6407002e-01 4.3434200e+01 
-5.0139543e-02 5.6696451e-01 4.3671154e+01 
1.3504514e-01 5.4209155e-01 4.3856747e+01 
1.0361936e-01 4.8715758e-01 4.3855240e+01 
2.0846681e-01 4.8028421e-01 4.4200001e+01 
1.9279444e-01 4.4799727e-01 4.4200001e+01 
-9.2261828e-02 7.6722860e-01 4.3470158e+01 
-1.4701239e-03 6.7547697e-01 4.3552124e+01 
-1.9517080e-01 8.4621930e-01 4.3403992e+01 
-3.1956279e-01 9.1811794e-01 4.3368977e+01 
-3.9574999e-01 8.5323322e-01 4.3367252e+01 
-1.7830023e-01 6.4416617e-01 4.3464752e+01 
-6.7131944e-02 5.7555372e-01 4.3547829e+01 
-2.8202194e-01 7.2500783e-01 4.3397518e+01 
-4.3632844e-01 9.6406585e-01 4.3303261e+01 
1.5138821e-01 5.3037512e-01 4.3609200e+01 
1.2119007e-01 4.7490793e-01 4.3606068e+01 
-8.7566733e-02 7.6566672e-01 4.3329563e+01 
-1.7495437e-01 6.4045686e-01 4.3323273e+01 
-3.1819177e-01 9.1839045e-01 4.3237537e+01 
-3.9568463e-01 8.5271639e-01 4.3235813e+01 
2.2269404e-02 6.5294570e-01 4.3398811e+01 
-1.9201367e-01 8.4610778e-01 4.3262066e+01 
-3.8899176e-02 5.5709696e-01 4.3393635e+01 
-2.8052819e-01 7.2267252e-01 4.3254715e+01 
3.7877345e-01 3.8273901e-01 4.4200001e+01 
-4.3632776e-01 9.6406174e-01 4.3171322e+01 
3.9241230e-01 3.7329337e-01 4.3965439e+01 
1.0283732e-02 6.6872352e-01 4.3271511e+01 
-5.6385640e-02 5.6585240e-01 4.3265472e+01 
-8.2753494e-02 7.6403379e-01 4.3186119e+01 
-4.0345609e-01 8.6371827e-01 4.3104889e+01 
-3.1680310e-01 9.1865683e-01 4.3105087e+01 
-1.7150842e-01 6.3665158e-01 4.3179005e+01 
-1.8879703e-01 8.4598809e-01 4.3117241e+01 
-2.7900568e-01 7.2029078e-01 4.3109074e+01 
4.0610775e-01 3.6380205e-01 4.3729839e+01 
1.6776134e-01 5.1882964e-01 4.3331150e+01 
-4.3632707e-01 9.6405768e-01 4.3038357e+01 
1.4031014e-01 4.6124566e-01 4.3307755e+01 
3.4952711e-02 6.4519531e-01 4.3111935e+01 
-7.7818394e-02 7.6232505e-01 4.3039719e+01 
-3.1539652e-01 9.1891652e-01 4.2971603e+01 
-3.9551663e-01 8.5160977e-01 4.2969879e+01 
-2.6899155e-02 5.4666573e-01 4.3105160e+01 
-1.6795819e-01 6.3274628e-01 4.3031849e+01 
-1.8551964e-01 8.4585863e-01 4.2969406e+01 
4.1985780e-01 3.5425979e-01 4.3493168e+01 
-2.7745360e-01 7.1786088e-01 4.2960495e+01 
-4.3632638e-01 9.6405357e-01 4.2904346e+01 
2.2723136e-02 6.6139150e-01 4.2979332e+01 
-4.4916678e-02 5.5559248e-01 4.2971806e+01 
-3.1397179e-01 9.1916907e-01 4.2837063e+01 
-3.9541367e-01 8.5101974e-01 4.2835335e+01 
-7.2757579e-02 7.6053542e-01 4.2890255e+01 
-1.6429928e-01 6.2873662e-01 4.2881699e+01 
1.8463810e-01 5.0694346e-01 4.3035332e+01 
-1.8218029e-01 8.4571803e-01 4.2818455e+01 
1.5503895e-01 4.5003417e-01 4.3027725e+01 
-2.7587104e-01 7.1538109e-01 4.2808868e+01 
4.3366045e-01 3.4466109e-01 4.3255390e+01 
-4.3632573e-01 9.6404958e-01 4.2769268e+01 
-3.8429454e-01 8.3484912e-01 4.2710606e+01 
-3.1252861e-01 9.1941386e-01 4.2701439e+01 
4.8404284e-02 6.3678014e-01 4.2813030e+01 
-1.4070326e-02 5.3562075e-01 4.2804932e+01 
-6.7567028e-02 7.5865942e-01 4.2737610e+01 
-1.6052702e-01 6.2461799e-01 4.2728443e+01 
-1.7877772e-01 8.4556442e-01 4.2664265e+01 
-4.3632504e-01 9.6404558e-01 4.2633099e+01 
-2.7425703e-01 7.1284944e-01 4.2654083e+01 
4.4751364e-01 3.3500037e-01 4.3016472e+01 
3.5901129e-02 6.5341437e-01 4.2674721e+01 
-3.7959340e-01 8.2794034e-01 4.2568317e+01 
-3.1106678e-01 9.1965032e-01 4.2564713e+01 
-3.2659348e-02 5.4472327e-01 4.2665997e+01 
2.0396979e-01 4.9291667e-01 4.2740131e+01 
-6.2242586e-02 7.5669110e-01 4.2581669e+01 
1.7765003e-01 4.3475360e-01 4.2732578e+01 
-1.5663649e-01 6.2038553e-01 4.2571964e+01 
-4.3632439e-01 9.6404165e-01 4.2495808e+01 
-1.7531081e-01 8.4539592e-01 4.2506718e+01 
-2.7261066e-01 7.1026409e-01 4.2496017e+01 
-3.0958602e-01 9.1987789e-01 4.2426853e+01 
-3.7859210e-01 8.2613736e-01 4.2421188e+01 
4.6141517e-01 3.2527190e-01 4.2776375e+01 
6.2686495e-02 6.2762415e-01 4.2501175e+01 
-3.3570320e-04 5.2390522e-01 4.2492062e+01 
-5.6779940e-02 7.5462401e-01 4.2422298e+01 
-4.3632373e-01 9.6403772e-01 4.2357380e+01 
-1.5262254e-01 6.1603409e-01 4.2412144e+01 
-1.7177837e-01 8.4521037e-01 4.2345684e+01 
-2.7093092e-01 7.0762289e-01 4.2334549e+01 
-3.0808610e-01 9.2009580e-01 4.2287842e+01 
-3.8275370e-01 8.3137155e-01 4.2275047e+01 
4.9876589e-02 6.4471585e-01 4.2356720e+01 
-1.9539909e-02 5.3318781e-01 4.2347118e+01 
-4.3632311e-01 9.6403396e-01 4.2217781e+01 
2.1959943e-01 4.8236796e-01 4.2385345e+01 
-5.1174615e-02 7.5245124e-01 4.2259373e+01 
1.9034323e-01 4.2346162e-01 4.2378918e+01 
-1.4847966e-01 6.1155808e-01 4.2248856e+01 
4.7536272e-01 3.1546980e-01 4.2535065e+01 
-1.6817927e-01 8.4500539e-01 4.2181026e+01 
-2.6921678e-01 7.0492369e-01 4.2169544e+01 
-3.0656675e-01 9.2030340e-01 4.2147648e+01 
-3.9470181e-01 8.4769493e-01 4.2145920e+01 
7.7868804e-02 6.1763972e-01 4.2175373e+01 
-4.3632248e-01 9.6403021e-01 4.2076988e+01 
1.4390758e-02 5.1145434e-01 4.2165581e+01 
-4.5421973e-02 7.5016522e-01 4.2092751e+01 
-1.4420210e-01 6.0695171e-01 4.2081959e+01 
-3.0502778e-01 9.2049998e-01 4.2006248e+01 
-4.0175444e-01 8.5747409e-01 4.2004128e+01 
-1.6451253e-01 8.4477836e-01 4.2012604e+01 
4.8935395e-01 3.0558801e-01 4.2292507e+01 
-2.6746723e-01 7.0216429e-01 4.2000870e+01 
6.4714879e-02 6.3520777e-01 4.2024277e+01 
-4.3632188e-01 9.6402657e-01 4.1934975e+01 
-5.4755262e-03 5.2092212e-01 4.2014156e+01 
-2.3078828e-01 8.1064087e-01 4.1931458e+01 
2.3550548e-01 4.7116494e-01 4.2073269e+01 
2.0610523e-01 4.1123796e-01 4.2066772e+01 
-3.9517213e-02 7.4775779e-01 4.1922287e+01 
-1.3978374e-01 6.0220873e-01 4.1911320e+01 
-3.0346894e-01 9.2068475e-01 4.1863613e+01 
-3.9432141e-01 8.4618556e-01 4.1861881e+01 
-1.6077711e-01 8.4452641e-01 4.1840263e+01 
-2.6568118e-01 6.9934219e-01 4.1828377e+01 
-4.3632129e-01 9.6402299e-01 4.1791718e+01 
5.0338638e-01 2.9562023e-01 4.2048656e+01 
9.4028555e-02 6.0672593e-01 4.1834507e+01 
3.0205652e-02 4.9819478e-01 4.1824417e+01 
-3.8116732e-01 8.2744831e-01 4.1725647e+01 
-3.0189002e-01 9.2085695e-01 4.1719719e+01 
-3.3455357e-02 7.4522001e-01 4.1747829e+01 
-1.3521814e-01 5.9732240e-01 4.1736786e+01 
-4.3632072e-01 9.6401960e-01 4.1647179e+01 
-1.5697217e-01 8.4424627e-01 4.1663853e+01 
-2.6385748e-01 6.9645494e-01 4.1651920e+01 
8.0488607e-02 6.2478805e-01 4.1676235e+01 
2.6870471e-01 4.4547972e-01 4.1752304e+01 
9.6269641e-03 5.0785345e-01 4.1665993e+01 
2.4764967e-01 3.8646612e-01 4.1743168e+01 
-3.0029076e-01 9.2101562e-01 4.1574532e+01 
-3.9388368e-01 8.4456980e-01 4.1572796e+01 
5.1745731e-01 2.8556010e-01 4.1803486e+01 
-2.7231261e-02 7.4254233e-01 4.1569210e+01 
-1.3049847e-01 5.9228569e-01 4.1558201e+01 
-4.3632016e-01 9.6401632e-01 4.1501339e+01 
-1.5309690e-01 8.4393430e-01 4.1483204e+01 
-2.6199502e-01 6.9349992e-01 4.1471333e+01 
-2.9867104e-01 9.2115986e-01 4.1428024e+01 
-3.9364263e-01 8.4372103e-01 4.1426289e+01 
1.1125199e-01 5.9476525e-01 4.1477348e+01 
4.7217656e-02 4.8404291e-01 4.1467384e+01 
-4.3631962e-01 9.6401310e-01 4.1354160e+01 
-2.0839609e-02 7.3971421e-01 4.1386261e+01 
-1.2561750e-01 5.8709091e-01 4.1375404e+01 
5.3156406e-01 2.7540097e-01 4.1556946e+01 
-1.4915068e-01 8.4358656e-01 4.1298138e+01 
-2.9703063e-01 9.2128879e-01 4.1280167e+01 
-3.9338648e-01 8.4284443e-01 4.1278431e+01 
-2.6009262e-01 6.9047421e-01 4.1286449e+01 
2.9365057e-01 4.2687622e-01 4.1391586e+01 
9.7278498e-02 6.1333776e-01 4.1311302e+01 
2.7470219e-01 3.6807936e-01 4.1382729e+01 
2.5872495e-02 4.9389899e-01 4.1301384e+01 
-4.3631911e-01 9.6401012e-01 4.1205620e+01 
-1.4274905e-02 7.3672432e-01 4.1198803e+01 
-1.2056758e-01 5.8173001e-01 4.1188221e+01 
-2.9536936e-01 9.2140132e-01 4.1130928e+01 
[...]
POINT_DATA 4496
FIELD FieldData 5
DISPLACEMENT 3 4496  float
5.4178126e-02 5.1245622e-02 -3.7541371e-04 
5.3927295e-02 5.0979465e-02 -3.7487163e-04 
5.4206707e-02 5.1309783e-02 -4.9641135e-04 
5.4247461e-02 5.1274356e-02 -2.1529260e-04 
5.3858988e-02 5.0865117e-02 -2.2504608e-04 
5.3827871e-02 5.0907508e-02 -4.9455784e-04 
5.3674724e-02 5.0711472e-02 -3.7432369e-04 
5.4243587e-02 5.1370535e-02 -5.7373126e-04 
5.4304823e-02 5.1327560e-02 -1.8804845e-04 
5.3990524e-02 5.1103547e-02 -5.7866890e-04 
5.4050472e-02 5.1057182e-02 -1.8575096e-04 
5.3605739e-02 5.0596178e-02 -2.2367577e-04 
5.3574238e-02 5.0639272e-02 -4.9722288e-04 
5.3732768e-02 5.0831579e-02 -5.8369158e-04 
5.4282207e-02 5.1422667e-02 -6.1366544e-04 
5.3791519e-02 5.0781939e-02 -1.8342084e-04 
5.3420380e-02 5.0441600e-02 -3.7376888e-04 
5.4345924e-02 5.1379658e-02 -2.1846560e-04 
5.3636909e-02 5.0645806e-02 -2.8292992e-04 
5.3980581e-02 5.1105723e-02 -6.2414387e-04 
5.4041117e-02 5.1060524e-02 -2.3315041e-04 
5.3318832e-02 5.0369143e-02 -4.9988006e-04 
5.3350698e-02 5.0325356e-02 -2.2228592e-04 
5.3470153e-02 5.0554480e-02 -5.8880181e-04 
5.3527825e-02 5.0501656e-02 -1.8104604e-04 
5.4331895e-02 5.1474754e-02 -6.1145052e-04 
5.3636976e-02 5.0742205e-02 -6.2742154e-04 
5.3164274e-02 5.0169822e-02 -3.7319949e-04 
5.4384846e-02 5.1441371e-02 -2.9152047e-04 
5.3697966e-02 5.0691634e-02 -2.1525787e-04 
5.3202529e-02 5.0272081e-02 -5.9399247e-04 
5.3061608e-02 5.0097082e-02 -5.0256849e-04 
5.3093862e-02 5.0052628e-02 -2.2087895e-04 
5.3823546e-02 5.0936557e-02 -6.1484106e-04 
5.3259216e-02 5.0216179e-02 -1.7863481e-04 
5.3372420e-02 5.0463069e-02 -6.3266215e-04 
5.3871963e-02 5.0900828e-02 -3.0350877e-04 
5.4074783e-02 5.1200110e-02 -6.0438417e-04 
5.3432394e-02 5.0409563e-02 -2.1353616e-04 
5.4116007e-02 5.1172599e-02 -3.4986835e-04 
5.2906301e-02 4.9896140e-02 -3.7262944e-04 
5.4388478e-02 5.1533025e-02 -6.0511206e-04 
5.3571425e-02 5.0671481e-02 -6.2319869e-04 
5.3629491e-02 5.0639309e-02 -2.8779291e-04 
5.4424457e-02 5.1512659e-02 -3.9611792e-04 
5.2929711e-02 4.9984183e-02 -5.9926510e-04 
5.3102780e-02 5.0178546e-02 -6.3797529e-04 
5.2802533e-02 4.9823079e-02 -5.0525524e-04 
5.2835166e-02 4.9777936e-02 -2.1940791e-04 
5.2985556e-02 4.9925335e-02 -1.7618109e-04 
5.3161860e-02 5.0122224e-02 -2.1180022e-04 
5.4145511e-02 5.1280919e-02 -6.2504655e-04 
5.3296503e-02 5.0379626e-02 -6.2232651e-04 
5.4169498e-02 5.1264867e-02 -4.7679956e-04 
5.2646488e-02 4.9620442e-02 -3.7203782e-04 
5.3342223e-02 5.0339125e-02 -3.0365126e-04 
5.3727247e-02 5.0836552e-02 -6.2246592e-04 
5.3755160e-02 5.0815959e-02 -4.4289354e-04 
5.4448873e-02 5.1606808e-02 -6.3975604e-04 
5.4467082e-02 5.1598132e-02 -5.3981156e-04 
5.2827884e-02 4.9888458e-02 -6.4337061e-04 
5.3043086e-02 5.0113212e-02 -6.3085934e-04 
5.2651536e-02 4.9690638e-02 -6.0462457e-04 
5.2541550e-02 4.9547061e-02 -5.0797407e-04 
5.2574590e-02 4.9501263e-02 -2.1793235e-04 
5.2886184e-02 4.9829457e-02 -2.1007177e-04 
5.3090628e-02 5.0067805e-02 -2.8736200e-04 
5.2706636e-02 4.9628939e-02 -1.7369229e-04 
5.2384742e-02 4.9342755e-02 -3.7145242e-04 
5.3238325e-02 5.0319817e-02 -6.2928104e-04 
5.3263221e-02 5.0296508e-02 -4.5101633e-04 
5.2547555e-02 4.9592633e-02 -6.4881449e-04 
5.2605178e-02 4.9531054e-02 -2.0832173e-04 
5.2278664e-02 4.9269047e-02 -5.1068194e-04 
5.2312106e-02 4.9222570e-02 -2.1643375e-04 
5.2748911e-02 4.9800903e-02 -6.2992383e-04 
5.2367818e-02 4.9391214e-02 -6.1005249e-04 
5.2792329e-02 4.9756158e-02 -3.0406669e-04 
5.2422296e-02 4.9326811e-02 -1.7115619e-04 
5.4503433e-02 5.1702216e-02 -7.7374169e-04 
5.2121051e-02 4.9063005e-02 -3.7086461e-04 
5.4039154e-02 5.1211469e-02 -7.8000239e-04 
5.2485451e-02 4.9523935e-02 -6.3883199e-04 
5.2530989e-02 4.9474370e-02 -2.8713886e-04 
5.2261610e-02 4.9290847e-02 -6.5433537e-04 
5.2044220e-02 4.8940629e-02 -2.2368044e-04 
5.2013759e-02 4.8988901e-02 -5.1342847e-04 
5.2318703e-02 4.9226869e-02 -2.0657733e-04 
5.2078366e-02 4.9085762e-02 -6.1556010e-04 
5.2132394e-02 4.9018789e-02 -1.6855070e-04 
5.3572748e-02 5.0718438e-02 -7.8627444e-04 
5.2688237e-02 4.9738307e-02 -6.3639163e-04 
5.1855352e-02 4.8781198e-02 -3.7026842e-04 
5.2673653e-02 4.9673524e-02 -4.5906432e-04 
5.2179329e-02 4.9198866e-02 -6.3761795e-04 
5.1969845e-02 4.8982926e-02 -6.5990305e-04 
5.1746927e-02 4.8706699e-02 -5.1614008e-04 
5.1781140e-02 4.8658893e-02 -2.1331363e-04 
5.2220866e-02 4.9150467e-02 -3.0478364e-04 
5.2026499e-02 4.8916657e-02 -2.0481081e-04 
5.1782969e-02 4.8774011e-02 -6.2112970e-04 
5.3104147e-02 5.0222944e-02 -7.9255167e-04 
5.1836640e-02 4.8704609e-02 -1.6592545e-04 
5.1587712e-02 4.8497219e-02 -3.6963160e-04 
5.1905129e-02 4.8910607e-02 -6.4688228e-04 
5.1949102e-02 4.8857514e-02 -2.8717116e-04 
5.1478025e-02 4.8422337e-02 -5.1890855e-04 
5.1512659e-02 4.8373897e-02 -2.1173511e-04 
5.1672053e-02 4.8668623e-02 -6.6553906e-04 
5.1728442e-02 4.8600271e-02 -2.0306556e-04 
5.2102812e-02 4.9119335e-02 -6.4372626e-04 
5.1481415e-02 4.8455756e-02 -6.2676705e-04 
5.2119344e-02 4.9086969e-02 -4.6362361e-04 
5.1534928e-02 4.8384160e-02 -1.6326914e-04 
5.2633330e-02 4.9725126e-02 -7.9889037e-04 
5.1317941e-02 4.8211183e-02 -3.6899460e-04 
5.1272437e-02 4.8115917e-02 -1.9917112e-04 
5.1207069e-02 4.8135862e-02 -5.2161427e-04 
5.1586192e-02 4.8571914e-02 -6.4537913e-04 
5.1626306e-02 4.8520532e-02 -3.0587072e-04 
5.1367994e-02 4.8347764e-02 -6.7122065e-04 
5.1424243e-02 4.8277456e-02 -2.0128628e-04 
5.1173534e-02 4.8130877e-02 -6.3246576e-04 
5.1046122e-02 4.7922935e-02 -3.6832588e-04 
5.1226970e-02 4.8057076e-02 -1.6054396e-04 
5.2160189e-02 4.9224805e-02 -8.0515927e-04 
5.1300485e-02 4.8271593e-02 -6.5497699e-04 
5.0992116e-02 4.7817301e-02 -1.9330170e-04 
5.0934009e-02 4.7847137e-02 -5.2429148e-04 
5.1343374e-02 4.8215661e-02 -2.8750335e-04 
5.1519860e-02 4.8503164e-02 -6.5145391e-04 
5.1057547e-02 4.8020098e-02 -6.7697291e-04 
5.1537026e-02 4.8472807e-02 -4.7532018e-04 
5.1113777e-02 4.7948029e-02 -1.9959925e-04 
5.0772209e-02 4.7632437e-02 -3.6759992e-04 
5.0859019e-02 4.7799047e-02 -6.3826318e-04 
5.0912566e-02 4.7723316e-02 -1.5778802e-04 
5.0658744e-02 4.7556195e-02 -5.2704237e-04 
5.0699368e-02 4.7506612e-02 -1.9089632e-04 
5.1684823e-02 4.8722234e-02 -8.1139064e-04 
5.0967816e-02 4.7918320e-02 -6.5314450e-04 
5.1007017e-02 4.7864687e-02 -3.0734096e-04 
5.0740384e-02 4.7685422e-02 -6.8268477e-04 
5.0496064e-02 4.7339767e-02 -3.6690902e-04 
5.0796732e-02 4.7611736e-02 -1.9785108e-04 
5.0537702e-02 4.7460049e-02 -6.4407079e-04 
5.0591510e-02 4.7382578e-02 -1.5497692e-04 
5.0381340e-02 4.7263015e-02 -5.2975642e-04 
5.0404862e-02 4.7195390e-02 -1.9307515e-04 
5.0669782e-02 4.7605053e-02 -6.6304073e-04 
5.0712191e-02 4.7547098e-02 -2.8813942e-04 
5.0217748e-02 4.7044851e-02 -3.6619147e-04 
5.0816018e-02 4.7758892e-02 -6.5893162e-04 
5.0416306e-02 4.7343485e-02 -6.8843027e-04 
5.0835665e-02 4.7729425e-02 -4.7550857e-04 
5.0472941e-02 4.7268424e-02 -1.9611615e-04 
5.1207092e-02 4.8217107e-02 -8.1754959e-04 
5.0209306e-02 4.7113638e-02 -6.4993592e-04 
5.0263520e-02 4.7034606e-02 -1.5211781e-04 
5.0101768e-02 4.6967611e-02 -5.3243589e-04 
5.0138403e-02 4.6916097e-02 -2.0320139e-04 
5.0322413e-02 4.7236308e-02 -6.6088623e-04 
4.9937181e-02 4.6747576e-02 -3.6548215e-04 
5.0361276e-02 4.7181237e-02 -3.0932797e-04 
5.0085060e-02 4.6994042e-02 -6.9420721e-04 
5.0142214e-02 4.6917792e-02 -1.9434455e-04 
4.9819764e-02 4.6669707e-02 -5.3521560e-04 
4.9850263e-02 4.6612822e-02 -2.0920367e-04 
4.9873576e-02 4.6759564e-02 -6.5585040e-04 
5.0726976e-02 4.7709502e-02 -8.2368142e-04 
4.9928494e-02 4.6679255e-02 -1.4914692e-04 
5.0011195e-02 4.6909284e-02 -6.7102589e-04 
4.9654145e-02 4.6447873e-02 -3.6478540e-04 
5.0053682e-02 4.6850100e-02 -2.8920619e-04 
4.9730659e-02 4.6552312e-02 -4.5105393e-04 
5.0198376e-02 4.7106110e-02 -6.6577597e-04 
5.0218254e-02 4.7076546e-02 -4.8010674e-04 
4.9746398e-02 4.6636868e-02 -7.0001959e-04 
4.9804207e-02 4.6559639e-02 -1.9256938e-04 
4.9535397e-02 4.6369370e-02 -5.3793861e-04 
4.9572803e-02 4.6316627e-02 -1.9961370e-04 
4.9530219e-02 4.6397630e-02 -6.6182629e-04 
4.9586065e-02 4.6316057e-02 -1.4612664e-04 
4.9368814e-02 4.6145707e-02 -3.6400728e-04 
5.0244574e-02 4.7199678e-02 -8.2977908e-04 
4.9647972e-02 4.6523884e-02 -6.6855963e-04 
4.9687125e-02 4.6468262e-02 -3.1181629e-04 
4.9311649e-02 4.6036508e-02 -1.8564241e-04 
4.9248800e-02 4.6066720e-02 -5.4057885e-04 
4.9399950e-02 4.6271529e-02 -7.0584449e-04 
4.9458615e-02 4.6193548e-02 -1.9077615e-04 
4.9081169e-02 4.5841083e-02 -3.6315949e-04 
4.9178977e-02 4.6027344e-02 -6.6784024e-04 
4.9235798e-02 4.5944817e-02 -1.4310247e-04 
4.9322508e-02 4.6182062e-02 -6.7887141e-04 
4.9571250e-02 4.6444688e-02 -6.7654654e-04 
4.9365696e-02 4.6122521e-02 -2.9071109e-04 
4.9585111e-02 4.6414144e-02 -5.0971622e-04 
4.8959684e-02 4.5761548e-02 -5.4329855e-04 
4.8997987e-02 4.5707628e-02 -1.9576444e-04 
4.9759973e-02 4.6687853e-02 -8.3578529e-04 
4.9045488e-02 4.5897797e-02 -7.1167020e-04 
4.9105234e-02 4.5819383e-02 -1.8907772e-04 
4.8791062e-02 4.5534112e-02 -3.6233864e-04 
4.8819486e-02 4.5648523e-02 -6.7381543e-04 
4.8877563e-02 4.5565348e-02 -1.4005005e-04 
4.8668209e-02 4.5453914e-02 -5.4592435e-04 
4.8706871e-02 4.5399487e-02 -1.9389957e-04 
4.8942186e-02 4.5778703e-02 -6.7605474e-04 
4.8982363e-02 4.5723602e-02 -3.1479989e-04 
4.8498403e-02 4.5224722e-02 -3.6154166e-04 
4.8682682e-02 4.5515437e-02 -7.1741588e-04 
4.8743702e-02 4.5436781e-02 -1.8728864e-04 
4.9272850e-02 4.6173334e-02 -8.4159587e-04 
4.8451487e-02 4.5260914e-02 -6.7978451e-04 
4.8374169e-02 4.5143846e-02 -5.4853590e-04 
4.8413184e-02 4.5088757e-02 -1.9186881e-04 
4.8511084e-02 4.5177244e-02 -1.3679566e-04 
4.8861410e-02 4.5695741e-02 -6.8571471e-04 
4.8601408e-02 4.5420907e-02 -6.8654522e-04 
4.8875492e-02 4.5667075e-02 -5.2381365e-04 
4.8646156e-02 4.5362197e-02 -2.9259548e-04 
4.8203304e-02 4.4912539e-02 -3.6069631e-04 
4.8311278e-02 4.5124091e-02 -7.2319957e-04 
4.8373662e-02 4.5045424e-02 -1.8551627e-04 
4.8077568e-02 4.4830967e-02 -5.5121421e-04 
4.8117056e-02 4.4775393e-02 -1.8990021e-04 
4.8074663e-02 4.4864029e-02 -6.8588188e-04 
4.8135925e-02 4.4780284e-02 -1.3355966e-04 
4.8783243e-02 4.5656491e-02 -8.4738125e-04 
4.7905501e-02 4.4597905e-02 -3.5984829e-04 
4.8202638e-02 4.4998314e-02 -6.8334443e-04 
4.8244506e-02 4.4944704e-02 -3.1848106e-04 
4.7778323e-02 4.4515561e-02 -5.5387337e-04 
4.7818195e-02 4.4459406e-02 -1.8781376e-04 
4.7930762e-02 4.4723246e-02 -7.2889484e-04 
4.7994938e-02 4.4645060e-02 -1.8377826e-04 
4.7605161e-02 4.4280455e-02 -3.5893658e-04 
4.7688618e-02 4.4457640e-02 -6.9180445e-04 
4.7751736e-02 4.4373985e-02 -1.3019750e-04 
4.8117373e-02 4.4911332e-02 -6.9542899e-04 
4.8132490e-02 4.4885594e-02 -5.3933274e-04 
4.7819298e-02 4.4593994e-02 -6.8675732e-04 
4.8291270e-02 4.5137491e-02 -8.5304264e-04 
4.7476519e-02 4.4197425e-02 -5.5639184e-04 
4.7516767e-02 4.4140838e-02 -1.8584791e-04 
4.7862317e-02 4.4541784e-02 -3.2048280e-04 
4.7540992e-02 4.4312853e-02 -7.3448959e-04 
4.7606982e-02 4.4235233e-02 -1.8205463e-04 
4.7302026e-02 4.3960571e-02 -3.5804207e-04 
4.7292855e-02 4.4041283e-02 -6.9781102e-04 
4.7358416e-02 4.3958168e-02 -1.2680852e-04 
4.7171962e-02 4.3876845e-02 -5.5887521e-04 
4.7212526e-02 4.3819569e-02 -1.8368060e-04 
4.7426514e-02 4.4179894e-02 -6.9015991e-04 
4.7215931e-02 4.3856446e-02 -3.0902127e-04 
4.7470950e-02 4.4129372e-02 -3.2281555e-04 
4.6996236e-02 4.3637760e-02 -3.5705246e-04 
4.7796514e-02 4.4615448e-02 -8.5848739e-04 
4.7499746e-02 4.4259097e-02 -6.9770479e-04 
4.7141455e-02 4.3892376e-02 -7.3987141e-04 
4.7521524e-02 4.4235192e-02 -5.2069291e-04 
4.7209661e-02 4.3815896e-02 -1.8030086e-04 
4.6864562e-02 4.3553196e-02 -5.6126842e-04 
4.6905532e-02 4.3495506e-02 -1.8154083e-04 
4.6887502e-02 4.3614946e-02 -7.0352561e-04 
4.6955258e-02 4.3532565e-02 -1.2350940e-04 
4.6687629e-02 4.3312404e-02 -3.5613525e-04 
4.7023933e-02 4.3755703e-02 -6.9350470e-04 
4.7069967e-02 4.3707125e-02 -3.2522678e-04 
4.6731889e-02 4.3461580e-02 -7.4531394e-04 
4.6554543e-02 4.3226928e-02 -5.6372420e-04 
4.6595886e-02 4.3168761e-02 -1.7933772e-04 
4.6802413e-02 4.3386422e-02 -1.7847690e-04 
4.7298964e-02 4.4091325e-02 -8.6394697e-04 
4.6471536e-02 4.3177858e-02 -7.0947508e-04 
4.6376232e-02 4.2984154e-02 -3.5512340e-04 
4.6988647e-02 4.3691128e-02 -5.8941584e-04 
4.6967357e-02 4.3704249e-02 -7.2457676e-04 
4.6542101e-02 4.3096628e-02 -1.1983761e-04 
4.6611063e-02 4.3321013e-02 -6.9658301e-04 
4.6658881e-02 4.3274615e-02 -3.2794778e-04 
4.6241533e-02 4.2897779e-02 -5.6619395e-04 
4.6283223e-02 4.2839155e-02 -1.7709992e-04 
4.6311680e-02 4.3019857e-02 -7.5064047e-04 
4.6384998e-02 4.2946450e-02 -1.7671207e-04 
4.6061784e-02 4.2652968e-02 -3.5407257e-04 
4.6798959e-02 4.3564569e-02 -8.6899556e-04 
4.6044633e-02 4.2729568e-02 -7.1536133e-04 
4.6118412e-02 4.2649858e-02 -1.1608203e-04 
4.5925673e-02 4.2565953e-02 -5.6831480e-04 
4.5967672e-02 4.2506810e-02 -1.7495375e-04 
4.6487555e-02 4.3163750e-02 -5.9309590e-04 
4.6466503e-02 4.3177184e-02 -7.2930212e-04 
4.6180345e-02 4.2867936e-02 -6.9980940e-04 
4.6226505e-02 4.2819593e-02 -3.2838824e-04 
4.5895036e-02 4.2483732e-02 -3.7832584e-04 
4.5744963e-02 4.2319410e-02 -3.5296998e-04 
4.5883145e-02 4.2569842e-02 -7.5613218e-04 
4.5961421e-02 4.2499766e-02 -1.7226340e-04 
4.5609377e-02 4.2232934e-02 -5.6760589e-04 
4.5651332e-02 4.2174198e-02 -1.7403980e-04 
4.5614284e-02 4.2277858e-02 -7.2072021e-04 
4.6296440e-02 4.3035749e-02 -8.7382586e-04 
4.5695648e-02 4.2204726e-02 -1.1256375e-04 
4.5430332e-02 4.1988730e-02 -3.5199328e-04 
4.5738738e-02 4.2404268e-02 -7.0504559e-04 
4.5797624e-02 4.2365950e-02 -3.1882038e-04 
4.5985386e-02 4.2635981e-02 -5.9742224e-04 
4.5964610e-02 4.2649593e-02 -7.3401752e-04 
4.5474194e-02 4.2041078e-02 -3.7738000e-04 
4.5295488e-02 4.1902799e-02 -5.6673831e-04 
4.5455024e-02 4.2120669e-02 -7.6184020e-04 
4.5337211e-02 4.1844077e-02 -1.7299096e-04 
4.5541115e-02 4.2056672e-02 -1.6650376e-04 
4.5118090e-02 4.1660324e-02 -3.5083099e-04 
4.5191515e-02 4.1834477e-02 -7.2582212e-04 
4.5279536e-02 4.1767143e-02 -1.0909000e-04 
4.5793496e-02 4.2506866e-02 -8.7849953e-04 
4.5312766e-02 4.1957859e-02 -7.1111158e-04 
4.5380015e-02 4.1924506e-02 -3.0876815e-04 
4.4983514e-02 4.1574854e-02 -5.6602171e-04 
4.5025215e-02 4.1516513e-02 -1.7198930e-04 
4.5429882e-02 4.2081784e-02 -7.1471068e-04 
4.5461427e-02 4.2067289e-02 -5.2974967e-04 
4.5034368e-02 4.1679736e-02 -7.6728669e-04 
4.5127302e-02 4.1620713e-02 -1.6083187e-04 
4.4954538e-02 4.1494962e-02 -3.7551019e-04 
4.4807844e-02 4.1334581e-02 -3.4978110e-04 
4.4869877e-02 4.1336540e-02 -1.0552050e-04 
4.4775724e-02 4.1398730e-02 -7.3059800e-04 
4.4673879e-02 4.1249476e-02 -5.6509161e-04 
4.4715356e-02 4.1191507e-02 -1.7098503e-04 
4.4968769e-02 4.1490212e-02 -2.9895923e-04 
4.4894055e-02 4.1519359e-02 -7.1718189e-04 
4.5291103e-02 4.1979309e-02 -8.8298967e-04 
4.4499516e-02 4.1011199e-02 -3.4877463e-04 
4.4719726e-02 4.1191861e-02 -1.5527874e-04 
4.4620667e-02 4.1246597e-02 -7.7245326e-04 
4.4961683e-02 4.1597143e-02 -7.4337737e-04 
4.4929110e-02 4.1511603e-02 -5.4319325e-04 
4.4366106e-02 4.0926464e-02 -5.6403456e-04 
4.4399500e-02 4.0861223e-02 -1.7377474e-04 
4.4466492e-02 4.0912695e-02 -1.0174394e-04 
4.4366874e-02 4.0970948e-02 -7.3529762e-04 
4.4293977e-02 4.0805537e-02 -3.8809044e-04 
4.4193290e-02 4.0689830e-02 -3.4757474e-04 
4.4563472e-02 4.1062836e-02 -2.8966219e-04 
4.4457126e-02 4.1057892e-02 -7.0724456e-04 
4.4318084e-02 4.0769927e-02 -1.5011065e-04 
4.4213876e-02 4.0820803e-02 -7.7730499e-04 
4.4060335e-02 4.0605545e-02 -5.6283339e-04 
4.4789646e-02 4.1453499e-02 -8.8737928e-04 
4.4101503e-02 4.0548023e-02 -1.6882259e-04 
4.4096809e-02 4.0592495e-02 -3.6267343e-04 
4.4470191e-02 4.1030355e-02 -5.4444029e-04 
4.3889027e-02 4.0371027e-02 -3.4647499e-04 
4.4068567e-02 4.0495735e-02 -9.8565288e-05 
4.3964628e-02 4.0550038e-02 -7.3939352e-04 
4.4460949e-02 4.1072503e-02 -7.4746244e-04 
4.4164263e-02 4.0642388e-02 -2.8033598e-04 
4.4077393e-02 4.0665034e-02 -7.2849664e-04 
4.3756571e-02 4.0287141e-02 -5.6177855e-04 
4.3797676e-02 4.0229898e-02 -1.6779716e-04 
4.3922469e-02 4.0354636e-02 -1.4476952e-04 
4.3813691e-02 4.0402241e-02 -7.8170648e-04 
4.3702319e-02 4.0167838e-02 -3.1609656e-04 
4.3586634e-02 4.0054459e-02 -3.4539460e-04 
4.4288531e-02 4.0928587e-02 -8.9157256e-04 
4.3676712e-02 4.0085044e-02 -9.4949632e-05 
4.3568730e-02 4.0136367e-02 -7.4332126e-04 
4.4003278e-02 4.0527359e-02 -4.9173570e-04 
4.3939579e-02 4.0516354e-02 -7.1154803e-04 
4.3454684e-02 3.9970916e-02 -5.6052138e-04 
4.3770913e-02 4.0228367e-02 -2.7139467e-04 
4.3476902e-02 3.9889105e-02 -1.4585235e-04 
4.3679062e-02 4.0249024e-02 -7.3401380e-04 
4.3285966e-02 3.9739966e-02 -3.4432404e-04 
4.3532450e-02 3.9945543e-02 -1.3950866e-04 
4.3419760e-02 3.9990857e-02 -7.8580872e-04 
4.3195397e-02 3.9600194e-02 -1.6574790e-04 
4.3147158e-02 3.9643914e-02 -5.3854770e-04 
4.3290421e-02 3.9680626e-02 -9.1519178e-05 
4.3178957e-02 3.9729435e-02 -7.4699399e-04 
4.3787882e-02 4.0404432e-02 -8.9507538e-04 
4.3118004e-02 3.9585374e-02 -4.2791685e-04 
4.3383174e-02 3.9820906e-02 -2.6274196e-04 
4.3286741e-02 3.9839692e-02 -7.3931157e-04 
4.2987224e-02 3.9427921e-02 -3.4331915e-04 
4.3147799e-02 3.9542984e-02 -1.3463516e-04 
4.3461058e-02 4.0026143e-02 -7.5494178e-04 
4.3480407e-02 4.0011991e-02 -6.1807176e-04 
4.2950161e-02 3.9338563e-02 -1.4276325e-04 
4.3031819e-02 3.9585866e-02 -7.8954926e-04 
4.2887155e-02 3.9383668e-02 -5.8450445e-04 
4.3324117e-02 3.9795361e-02 -4.0711203e-04 
4.3235093e-02 3.9777670e-02 -7.0811121e-04 
4.2909194e-02 3.9282355e-02 -8.8311259e-05 
4.2795584e-02 3.9329126e-02 -7.4989011e-04 
4.2690519e-02 3.9118018e-02 -3.4212443e-04 
4.3000780e-02 3.9419483e-02 -2.5422187e-04 
4.2900808e-02 3.9437391e-02 -7.4423064e-04 
4.3287091e-02 3.9880358e-02 -8.9837436e-04 
4.2626247e-02 3.8998615e-02 -1.3325598e-04 
4.2560376e-02 3.9043382e-02 -5.8755931e-04 
4.2768639e-02 3.9146077e-02 -1.2973901e-04 
4.2650111e-02 3.9187811e-02 -7.9318986e-04 
4.2395614e-02 3.8810063e-02 -3.4095594e-04 
4.2961515e-02 3.9504338e-02 -7.5806025e-04 
4.2980481e-02 3.9490178e-02 -6.2138063e-04 
4.2533442e-02 3.8889673e-02 -8.4780309e-05 
4.2417873e-02 3.8935594e-02 -7.5288420e-04 
4.2623539e-02 3.9023932e-02 -2.4603002e-04 
4.2243291e-02 3.8711030e-02 -5.8108591e-04 
4.2472836e-02 3.8994119e-02 -7.5902295e-04 
4.2640198e-02 3.9079018e-02 -3.9730346e-04 
4.2251568e-02 3.8607687e-02 -1.3124220e-04 
4.2394437e-02 3.8755115e-02 -1.2502269e-04 
4.2274237e-02 3.8795941e-02 -7.9637283e-04 
4.2102177e-02 3.8504258e-02 -3.3978451e-04 
4.2787228e-02 3.9357897e-02 -9.0116682e-04 
4.2080928e-02 3.8500167e-02 -4.1399262e-04 
4.2162653e-02 3.8503051e-02 -8.1377548e-05 
4.2393111e-02 3.8898714e-02 -7.1053347e-04 
4.1975737e-02 3.8421307e-02 -5.3675444e-04 
4.2045668e-02 3.8547732e-02 -7.5559819e-04 
4.2013016e-02 3.8367152e-02 -1.6161094e-04 
4.2251423e-02 3.8634278e-02 -2.3796517e-04 
4.2462714e-02 3.8983926e-02 -7.6062832e-04 
4.2481408e-02 3.8969744e-02 -6.2406168e-04 
4.2146202e-02 3.8651586e-02 -7.5339398e-04 
4.1922357e-02 3.8260609e-02 -1.1182706e-04 
4.1810580e-02 3.8200583e-02 -3.3867653e-04 
4.2025354e-02 3.8369928e-02 -1.2013143e-04 
4.1903723e-02 3.8410217e-02 -7.9928985e-04 
4.1764461e-02 3.8109381e-02 -1.6440838e-04 
4.1681979e-02 3.8118839e-02 -5.5094558e-04 
4.1796744e-02 3.8121559e-02 -7.8068442e-05 
4.1678876e-02 3.8166318e-02 -7.5785810e-04 
4.2287782e-02 3.8836889e-02 -9.0373668e-04 
4.1884042e-02 3.8250148e-02 -2.3013716e-04 
4.1520733e-02 3.7898816e-02 -3.3750047e-04 
4.1730978e-02 3.8222197e-02 -7.6696178e-04 
4.1538529e-02 3.7864279e-02 -1.2283452e-04 
4.1904982e-02 3.8315970e-02 -4.1005676e-04 
4.1660912e-02 3.7989989e-02 -1.1553906e-04 
4.1567862e-02 3.7948750e-02 -3.4267432e-04 
4.1415870e-02 3.7851430e-02 -5.8992620e-04 
4.1964408e-02 3.8464736e-02 -7.6317729e-04 
4.1538656e-02 3.8030412e-02 -8.0198015e-04 
4.1982815e-02 3.8450565e-02 -6.2678696e-04 
4.1435432e-02 3.7745789e-02 -7.5011878e-05 
4.1653864e-02 3.8128145e-02 -7.1135646e-04 