# vtk DataFile Version 4.0
vtk output
ASCII
DATASET UNSTRUCTURED_GRID
POINTS 4496 float
-4.3633327e-01 9.6409470e-01 4.4200001e+01 
-4.3633258e-01 9.6409065e-01 4.4074627e+01 
-3.2152572e-01 9.1279918e-01 4.4200001e+01 
-3.8534868e-01 8.4052670e-01 4.4200001e+01 
-3.9589554e-01 8.5545403e-01 4.4010014e+01 
-3.2616228e-01 9.1667932e-01 4.4011734e+01 
-4.3633190e-01 9.6408653e-01 4.3948376e+01 
-2.1293370e-01 8.4677851e-01 4.4200001e+01 
-2.9042658e-01 7.3813015e-01 4.4200001e+01 
-2.1010752e-01 8.4669363e-01 4.4073502e+01 
-2.8908840e-01 7.3604190e-01 4.4072292e+01 
-3.9589015e-01 8.5505831e-01 4.3883316e+01 
-3.2487559e-01 9.1697580e-01 4.3885036e+01 
-2.0722924e-01 8.4660655e-01 4.3944645e+01 
-1.1981077e-01 7.7773046e-01 4.4200001e+01 
-2.8772619e-01 7.3391593e-01 4.3942276e+01 
-4.3633121e-01 9.6408242e-01 4.3821228e+01 
-1.9739023e-01 6.6468561e-01 4.4200001e+01 
-2.9444304e-01 7.8727525e-01 4.3879974e+01 
-8.7554991e-02 7.5255024e-01 4.4042213e+01 
-1.6445170e-01 6.4084798e-01 4.4041008e+01 
-3.2357255e-01 9.1726828e-01 4.3757431e+01 
-3.9587301e-01 8.5463828e-01 4.3755711e+01 
-2.0429766e-01 8.4651643e-01 4.3813354e+01 
-2.8633916e-01 7.3175091e-01 4.3809875e+01 
-2.6899619e-02 6.8901783e-01 4.4200001e+01 
-1.0567340e-01 7.7152997e-01 4.3875790e+01 
-4.3633053e-01 9.6407831e-01 4.3693161e+01 
-8.7133333e-02 5.9509218e-01 4.4200001e+01 
-1.8777622e-01 6.5475601e-01 4.3873402e+01 
-2.0131156e-01 8.4642249e-01 4.3679543e+01 
-3.2225290e-01 9.1755641e-01 4.3628902e+01 
-3.9584404e-01 8.5419410e-01 4.3627178e+01 
-1.0114321e-03 6.6670936e-01 4.3939713e+01 
-2.8492665e-01 7.2954547e-01 4.3675007e+01 
-1.0131179e-01 7.7015632e-01 4.3743176e+01 
-6.0682178e-02 5.7631296e-01 4.3938457e+01 
3.9444737e-02 6.2338209e-01 4.4053139e+01 
-1.8470748e-01 6.5131217e-01 4.3739727e+01 
-7.0938184e-03 5.4737431e-01 4.4052326e+01 
-4.3632981e-01 9.6407413e-01 4.3564159e+01 
7.6947339e-02 5.8804804e-01 4.4200001e+01 
-1.2721874e-02 6.8194175e-01 4.3817982e+01 
-7.7214435e-02 5.8474159e-01 4.3819649e+01 
4.0195532e-02 5.2425718e-01 4.4200001e+01 
-1.9826968e-01 8.4632379e-01 4.3543118e+01 
-9.6842363e-02 7.6872379e-01 4.3607994e+01 
-3.2091641e-01 9.1783977e-01 4.3499420e+01 
-3.9580306e-01 8.5372573e-01 4.3497700e+01 
-2.8348783e-01 7.2729832e-01 4.3537586e+01 
-1.8155001e-01 6.4778340e-01 4.3603539e+01 
1.5678726e-01 5.2239102e-01 4.4060219e+01 
1.0298219e-02 6.6009766e-01 4.3674484e+01 
1.3250886e-01 4.7546524e-01 4.4058990e+01 
-4.3632913e-01 9.6407002e-01 4.3434200e+01 
-5.0139543e-02 5.6696451e-01 4.3671154e+01 
1.3504514e-01 5.4209155e-01 4.3856747e+01 
1.0361936e-01 4.8715758e-01 4.3855240e+01 
2.0846681e-01 4.8028421e-01 4.4200001e+01 
1.9279444e-01 4.4799727e-01 4.4200001e+01 
-9.2261828e-02 7.6722860e-01 4.3470158e+01 
-1.4701239e-03 6.7547697e-01 4.3552124e+01 
-1.9517080e-01 8.4621930e-01 4.3403992e+01 
-3.1956279e-01 9.1811794e-01 4.3368977e+01 
-3.9574999e-01 8.5323322e-01 4.3367252e+01 
-1.7830023e-01 6.4416617e-01 4.3464752e+01 
-6.7131944e-02 5.7555372e-01 4.3547829e+01 
-2.8202194e-01 7.2500783e-01 4.3397518e+01 
-4.3632844e-01 9.6406585e-01 4.3303261e+01 
1.5138821e-01 5.3037512e-01 4.3609200e+01 
1.2119007e-01 4.7490793e-01 4.3606068e+01 
-8.7566733e-02 7.6566672e-01 4.3329563e+01 
-1.7495437e-01 6.4045686e-01 4.3323273e+01 
-3.1819177e-01 9.1839045e-01 4.3237537e+01 
-3.9568463e-01 8.5271639e-01 4.3235813e+01 
2.2269404e-02 6.5294570e-01 4.3398811e+01 
-1.9201367e-01 8.4610778e-01 4.3262066e+01 
-3.8899176e-02 5.5709696e-01 4.3393635e+01 
-2.8052819e-01 7.2267252e-01 4.3254715e+01 
3.7877345e-01 3.8273901e-01 4.4200001e+01 
-4.3632776e-01 9.6406174e-01 4.3171322e+01 
3.9241230e-01 3.7329337e-01 4.3965439e+01 
1.0283732e-02 6.6872352e-01 4.3271511e+01 
-5.6385640e-02 5.6585240e-01 4.3265472e+01 
-8.2753494e-02 7.6403379e-01 4.3186119e+01 
-4.0345609e-01 8.6371827e-01 4.3104889e+01 
-3.1680310e-01 9.1865683e-01 4.3105087e+01 
-1.7150842e-01 6.3665158e-01 4.3179005e+01 
-1.8879703e-01 8.4598809e-01 4.3117241e+01 
-2.7900568e-01 7.2029078e-01 4.3109074e+01 
4.0610775e-01 3.6380205e-01 4.3729839e+01 
1.6776134e-01 5.1882964e-01 4.3331150e+01 
-4.3632707e-01 9.6405768e-01 4.3038357e+01 
1.4031014e-01 4.6124566e-01 4.3307755e+01 
3.4952711e-02 6.4519531e-01 4.3111935e+01 
-7.7818394e-02 7.6232505e-01 4.3039719e+01 
-3.1539652e-01 9.1891652e-01 4.2971603e+01 
-3.9551663e-01 8.5160977e-01 4.2969879e+01 
-2.6899155e-02 5.4666573e-01 4.3105160e+01 
-1.6795819e-01 6.3274628e-01 4.3031849e+01 
-1.8551964e-01 8.4585863e-01 4.2969406e+01 
4.1985780e-01 3.5425979e-01 4.3493168e+01 
-2.7745360e-01 7.1786088e-01 4.2960495e+01 
-4.3632638e-01 9.6405357e-01 4.2904346e+01 
2.2723136e-02 6.6139150e-01 4.2979332e+01 
-4.4916678e-02 5.5559248e-01 4.2971806e+01 
-3.1397179e-01 9.1916907e-01 4.2837063e+01 
-3.9541367e-01 8.5101974e-01 4.2835335e+01 
-7.2757579e-02 7.6053542e-01 4.2890255e+01 
-1.6429928e-01 6.2873662e-01 4.2881699e+01 
1.8463810e-01 5.0694346e-01 4.3035332e+01 
-1.8218029e-01 8.4571803e-01 4.2818455e+01 
1.5503895e-01 4.5003417e-01 4.3027725e+01 
-2.7587104e-01 7.1538109e-01 4.2808868e+01 
4.3366045e-01 3.4466109e-01 4.3255390e+01 
-4.3632573e-01 9.6404958e-01 4.2769268e+01 
-3.8429454e-01 8.3484912e-01 4.2710606e+01 
-3.1252861e-01 9.1941386e-01 4.2701439e+01 
4.8404284e-02 6.3678014e-01 4.2813030e+01 
-1.4070326e-02 5.3562075e-01 4.2804932e+01 
-6.7567028e-02 7.5865942e-01 4.2737610e+01 
-1.6052702e-01 6.2461799e-01 4.2728443e+01 
-1.7877772e-01 8.4556442e-01 4.2664265e+01 
-4.3632504e-01 9.6404558e-01 4.2633099e+01 
-2.7425703e-01 7.1284944e-01 4.2654083e+01 
4.4751364e-01 3.3500037e-01 4.3016472e+01 
3.5901129e-02 6.5341437e-01 4.2674721e+01 
-3.7959340e-01 8.2794034e-01 4.2568317e+01 
-3.1106678e-01 9.1965032e-01 4.2564713e+01 
-3.2659348e-02 5.4472327e-01 4.2665997e+01 
2.0396979e-01 4.9291667e-01 4.2740131e+01 
-6.2242586e-02 7.5669110e-01 4.2581669e+01 
1.7765003e-01 4.3475360e-01 4.2732578e+01 
-1.5663649e-01 6.2038553e-01 4.2571964e+01 
-4.3632439e-01 9.6404165e-01 4.2495808e+01 
-1.7531081e-01 8.4539592e-01 4.2506718e+01 
-2.7261066e-01 7.1026409e-01 4.2496017e+01 
-3.0958602e-01 9.1987789e-01 4.2426853e+01 
-3.7859210e-01 8.2613736e-01 4.2421188e+01 
4.6141517e-01 3.2527190e-01 4.2776375e+01 
6.2686495e-02 6.2762415e-01 4.2501175e+01 
-3.3570320e-04 5.2390522e-01 4.2492062e+01 
-5.6779940e-02 7.5462401e-01 4.2422298e+01 
-4.3632373e-01 9.6403772e-01 4.2357380e+01 
-1.5262254e-01 6.1603409e-01 4.2412144e+01 
-1.7177837e-01 8.4521037e-01 4.2345684e+01 
-2.7093092e-01 7.0762289e-01 4.2334549e+01 
-3.0808610e-01 9.2009580e-01 4.2287842e+01 
-3.8275370e-01 8.3137155e-01 4.2275047e+01 
4.9876589e-02 6.4471585e-01 4.2356720e+01 
-1.9539909e-02 5.3318781e-01 4.2347118e+01 
-4.3632311e-01 9.6403396e-01 4.2217781e+01 
2.1959943e-01 4.8236796e-01 4.2385345e+01 
-5.1174615e-02 7.5245124e-01 4.2259373e+01 
1.9034323e-01 4.2346162e-01 4.2378918e+01 
-1.4847966e-01 6.1155808e-01 4.2248856e+01 
4.7536272e-01 3.1546980e-01 4.2535065e+01 
-1.6817927e-01 8.4500539e-01 4.2181026e+01 
-2.6921678e-01 7.0492369e-01 4.2169544e+01 
-3.0656675e-01 9.2030340e-01 4.2147648e+01 
-3.9470181e-01 8.4769493e-01 4.2145920e+01 
7.7868804e-02 6.1763972e-01 4.2175373e+01 
-4.3632248e-01 9.6403021e-01 4.2076988e+01 
1.4390758e-02 5.1145434e-01 4.2165581e+01 
-4.5421973e-02 7.5016522e-01 4.2092751e+01 
-1.4420210e-01 6.0695171e-01 4.2081959e+01 
-3.0502778e-01 9.2049998e-01 4.2006248e+01 
-4.0175444e-01 8.5747409e-01 4.2004128e+01 
-1.6451253e-01 8.4477836e-01 4.2012604e+01 
4.8935395e-01 3.0558801e-01 4.2292507e+01 
-2.6746723e-01 7.0216429e-01 4.2000870e+01 
6.4714879e-02 6.3520777e-01 4.2024277e+01 
-4.3632188e-01 9.6402657e-01 4.1934975e+01 
-5.4755262e-03 5.2092212e-01 4.2014156e+01 
-2.3078828e-01 8.1064087e-01 4.1931458e+01 
2.3550548e-01 4.7116494e-01 4.2073269e+01 
2.0610523e-01 4.1123796e-01 4.2066772e+01 
-3.9517213e-02 7.4775779e-01 4.1922287e+01 
-1.3978374e-01 6.0220873e-01 4.1911320e+01 
-3.0346894e-01 9.2068475e-01 4.1863613e+01 
-3.9432141e-01 8.4618556e-01 4.1861881e+01 
-1.6077711e-01 8.4452641e-01 4.1840263e+01 
-2.6568118e-01 6.9934219e-01 4.1828377e+01 
-4.3632129e-01 9.6402299e-01 4.1791718e+01 
5.0338638e-01 2.9562023e-01 4.2048656e+01 
9.4028555e-02 6.0672593e-01 4.1834507e+01 
3.0205652e-02 4.9819478e-01 4.1824417e+01 
-3.8116732e-01 8.2744831e-01 4.1725647e+01 
-3.0189002e-01 9.2085695e-01 4.1719719e+01 
-3.3455357e-02 7.4522001e-01 4.1747829e+01 
-1.3521814e-01 5.9732240e-01 4.1736786e+01 
-4.3632072e-01 9.6401960e-01 4.1647179e+01 
-1.5697217e-01 8.4424627e-01 4.1663853e+01 
-2.6385748e-01 6.9645494e-01 4.1651920e+01 
8.0488607e-02 6.2478805e-01 4.1676235e+01 
2.6870471e-01 4.4547972e-01 4.1752304e+01 
9.6269641e-03 5.0785345e-01 4.1665993e+01 
2.4764967e-01 3.8646612e-01 4.1743168e+01 
-3.0029076e-01 9.2101562e-01 4.1574532e+01 
-3.9388368e-01 8.4456980e-01 4.1572796e+01 
5.1745731e-01 2.8556010e-01 4.1803486e+01 
-2.7231261e-02 7.4254233e-01 4.1569210e+01 
-1.3049847e-01 5.9228569e-01 4.1558201e+01 
-4.3632016e-01 9.6401632e-01 4.1501339e+01 
-1.5309690e-01 8.4393430e-01 4.1483204e+01 
-2.6199502e-01 6.9349992e-01 4.1471333e+01 
-2.9867104e-01 9.2115986e-01 4.1428024e+01 
-3.9364263e-01 8.4372103e-01 4.1426289e+01 
1.1125199e-01 5.9476525e-01 4.1477348e+01 
4.7217656e-02 4.8404291e-01 4.1467384e+01 
-4.3631962e-01 9.6401310e-01 4.1354160e+01 
-2.0839609e-02 7.3971421e-01 4.1386261e+01 
-1.2561750e-01 5.8709091e-01 4.1375404e+01 
5.3156406e-01 2.7540097e-01 4.1556946e+01 
-1.4915068e-01 8.4358656e-01 4.1298138e+01 
-2.9703063e-01 9.2128879e-01 4.1280167e+01 
-3.9338648e-01 8.4284443e-01 4.1278431e+01 
-2.6009262e-01 6.9047421e-01 4.1286449e+01 
2.9365057e-01 4.2687622e-01 4.1391586e+01 
9.7278498e-02 6.1333776e-01 4.1311302e+01 
2.7470219e-01 3.6807936e-01 4.1382729e+01 
2.5872495e-02 4.9389899e-01 4.1301384e+01 
-4.3631911e-01 9.6401012e-01 4.1205620e+01 
-1.4274905e-02 7.3672432e-01 4.1198803e+01 
-1.2056758e-01 5.8173001e-01 4.1188221e+01 
-2.9536936e-01 9.2140132e-01 4.1130928e+01 
[...]
POINT_DATA 4496
FIELD FieldData 5
DISPLACEMENT 3 4496  float
3.2892543e-01 3.0061948e-01 -4.0356289e-03 
3.2708061e-01 2.9875839e-01 -4.0081860e-03 
3.2896942e-01 3.0072653e-01 -4.9659670e-03 
3.2905594e-01 3.0067816e-01 -2.9541091e-03 
3.2624510e-01 2.9784697e-01 -2.9786304e-03 
3.2619536e-01 2.9792726e-01 -4.9140756e-03 
3.2522291e-01 2.9688433e-01 -3.9805458e-03 
3.2903031e-01 3.0082974e-01 -5.5864067e-03 
3.2915840e-01 3.0077329e-01 -2.8337275e-03 
3.2716867e-01 2.9895440e-01 -5.5991374e-03 
3.2728136e-01 2.9887894e-01 -2.7945684e-03 
3.2438126e-01 2.9596633e-01 -2.9451612e-03 
3.2433066e-01 2.9604766e-01 -4.9097328e-03 
3.2527244e-01 2.9704413e-01 -5.6120683e-03 
3.2909623e-01 3.0091962e-01 -5.9341099e-03 
3.2537040e-01 2.9695040e-01 -2.7547292e-03 
3.2335207e-01 2.9499698e-01 -3.9526941e-03 
3.2922918e-01 3.0086362e-01 -3.1149234e-03 
3.2439566e-01 2.9601374e-01 -3.4334909e-03 
3.2679865e-01 2.9860860e-01 -6.0013318e-03 
3.2691228e-01 2.9853511e-01 -3.2118494e-03 
3.2245269e-01 2.9415467e-01 -4.9053007e-03 
3.2250413e-01 2.9407230e-01 -2.9113442e-03 
3.2334036e-01 2.9509780e-01 -5.6251846e-03 
3.2342440e-01 2.9498649e-01 -2.7141662e-03 
3.2918385e-01 3.0101156e-01 -5.9870621e-03 
3.2433087e-01 2.9611993e-01 -5.9795221e-03 
3.2146788e-01 2.9309618e-01 -3.9246017e-03 
3.2929391e-01 3.0096874e-01 -3.7068450e-03 
3.2443318e-01 2.9602492e-01 -3.0379707e-03 
3.2137129e-01 2.9311416e-01 -5.6384564e-03 
3.2056120e-01 2.9224807e-01 -4.9008373e-03 
3.2061356e-01 2.9216471e-01 -2.8771851e-03 
3.2537544e-01 2.9717278e-01 -5.9806779e-03 
3.2144219e-01 2.9298609e-01 -2.6729016e-03 
3.2238060e-01 2.9415530e-01 -5.9943614e-03 
3.2546300e-01 2.9711151e-01 -3.7608244e-03 
3.2708782e-01 2.9889718e-01 -5.9588253e-03 
3.2246959e-01 2.9404372e-01 -3.0029733e-03 
3.2716468e-01 2.9885247e-01 -4.1458341e-03 
3.1957000e-01 2.9118168e-01 -3.8963265e-03 
3.2928383e-01 3.0111459e-01 -6.0192924e-03 
3.2356867e-01 2.9535356e-01 -6.0074721e-03 
3.2370716e-01 2.9533225e-01 -3.6163952e-03 
3.2935816e-01 3.0108917e-01 -4.5318063e-03 
3.1936395e-01 2.9109198e-01 -5.6518558e-03 
3.2039270e-01 2.9215279e-01 -6.0093151e-03 
3.1865591e-01 2.9032767e-01 -4.8962962e-03 
3.1870914e-01 2.9024327e-01 -2.8426035e-03 
3.1942260e-01 2.9094800e-01 -2.6308764e-03 
3.2046920e-01 2.9202542e-01 -2.9674913e-03 
3.2729053e-01 2.9911718e-01 -6.1910548e-03 
3.2147866e-01 2.9324606e-01 -5.9912312e-03 
3.2732677e-01 2.9908267e-01 -5.1371246e-03 
3.1765825e-01 2.8925315e-01 -3.8677545e-03 
3.2153860e-01 2.9315370e-01 -3.7191890e-03 
3.2427689e-01 2.9607490e-01 -6.1185220e-03 
3.2431859e-01 2.9603088e-01 -4.8404746e-03 
3.2938838e-01 3.0124292e-01 -6.3583455e-03 
3.2942569e-01 3.0123264e-01 -5.6485496e-03 
3.1836590e-01 2.9011109e-01 -6.0243690e-03 
3.1966272e-01 2.9141769e-01 -6.0191415e-03 
3.1731704e-01 2.8902999e-01 -5.6653838e-03 
3.1673655e-01 2.8839311e-01 -4.8916885e-03 
3.1679073e-01 2.8830773e-01 -2.8077031e-03 
3.1843081e-01 2.8996885e-01 -2.9316172e-03 
3.1971633e-01 2.9130724e-01 -3.5694996e-03 
3.1736425e-01 2.8887099e-01 -2.5881275e-03 
3.1573227e-01 2.8731048e-01 -3.8389938e-03 
3.2064512e-01 2.9241529e-01 -6.1313622e-03 
3.2066324e-01 2.9234844e-01 -4.8632175e-03 
3.1629887e-01 2.8802893e-01 -6.0394285e-03 
3.1635299e-01 2.8787267e-01 -2.8952048e-03 
3.1480291e-01 2.8644428e-01 -4.8869611e-03 
3.1485802e-01 2.8635791e-01 -2.7723953e-03 
3.1742916e-01 2.8916541e-01 -6.0010953e-03 
3.1522918e-01 2.8692684e-01 -5.6789652e-03 
3.1746468e-01 2.8904548e-01 -3.6780799e-03 
3.1526595e-01 2.8675368e-01 -2.5446231e-03 
3.2947743e-01 3.0140436e-01 -7.4202367e-03 
3.1379187e-01 2.8535327e-01 -3.8100665e-03 
3.2603431e-01 2.9793453e-01 -7.4297586e-03 
3.1554052e-01 2.8726399e-01 -6.0305516e-03 
3.1557146e-01 2.8712729e-01 -3.5226746e-03 
3.1419024e-01 2.8590491e-01 -6.0544894e-03 
3.1292132e-01 2.8440788e-01 -2.7926532e-03 
3.1285459e-01 2.8448069e-01 -4.8822700e-03 
3.1423464e-01 2.8573567e-01 -2.8584201e-03 
3.1309903e-01 2.8478122e-01 -5.6925467e-03 
3.1312636e-01 2.8459489e-01 -2.5002141e-03 
3.2257578e-01 2.9444918e-01 -7.4391626e-03 
3.1656471e-01 2.8830349e-01 -6.1405194e-03 
3.1183672e-01 2.8338137e-01 -3.7809489e-03 
3.1628644e-01 2.8793859e-01 -4.8773093e-03 
3.1321630e-01 2.8492039e-01 -6.0099810e-03 
3.1203860e-01 2.8373766e-01 -6.0694725e-03 
3.1089166e-01 2.8250244e-01 -4.8773191e-03 
3.1094852e-01 2.8241405e-01 -2.7008131e-03 
3.1323096e-01 2.8477666e-01 -3.6376575e-03 
3.1207410e-01 2.8355640e-01 -2.8210415e-03 
3.1092510e-01 2.8259152e-01 -5.7061361e-03 
3.1910157e-01 2.9094777e-01 -7.4482812e-03 
3.1094390e-01 2.8239307e-01 -2.4551568e-03 
3.0986676e-01 2.8139448e-01 -3.7514067e-03 
3.1124994e-01 2.8294089e-01 -6.0407389e-03 
3.1126189e-01 2.8278196e-01 -3.4760889e-03 
3.0891347e-01 2.8050902e-01 -4.8723547e-03 
3.0897146e-01 2.8041986e-01 -2.6645921e-03 
3.0984244e-01 2.8152570e-01 -6.0843397e-03 
3.0987030e-01 2.8133354e-01 -2.7833774e-03 
3.1222412e-01 2.8392965e-01 -6.1480394e-03 
3.0870584e-01 2.8035632e-01 -5.7196235e-03 
3.1217748e-01 2.8379729e-01 -4.8671514e-03 
3.0871746e-01 2.8014717e-01 -2.4092831e-03 
3.1561157e-01 2.8743073e-01 -7.4572354e-03 
3.0788147e-01 2.7939269e-01 -3.7217806e-03 
3.0715477e-01 2.7858311e-01 -2.5618304e-03 
3.0692014e-01 2.7850068e-01 -4.8671304e-03 
3.0882877e-01 2.8049985e-01 -6.0175019e-03 
3.0882648e-01 2.8033659e-01 -3.5982160e-03 
3.0760017e-01 2.7926764e-01 -6.0990700e-03 
3.0762133e-01 2.7906561e-01 -2.7450286e-03 
3.0644003e-01 2.7807459e-01 -5.7330499e-03 
3.0588087e-01 2.7737546e-01 -3.6918025e-03 
3.0644506e-01 2.7785501e-01 -2.3624129e-03 
3.1210545e-01 2.8389761e-01 -7.4655805e-03 
3.0677924e-01 2.7843699e-01 -6.0493280e-03 
3.0507129e-01 2.7648035e-01 -2.4979669e-03 
3.0491129e-01 2.7647671e-01 -4.8616207e-03 
3.0677626e-01 2.7826026e-01 -3.4299151e-03 
3.0789629e-01 2.7956972e-01 -6.1601051e-03 
3.0531049e-01 2.7696174e-01 -6.1137178e-03 
3.0785120e-01 2.7944136e-01 -4.9097398e-03 
3.0532598e-01 2.7675116e-01 -2.7065966e-03 
3.0386460e-01 2.7534258e-01 -3.6613164e-03 
3.0412546e-01 2.7574393e-01 -5.7465145e-03 
3.0412546e-01 2.7551588e-01 -2.3148763e-03 
3.0288634e-01 2.7443698e-01 -4.8560891e-03 
3.0291241e-01 2.7430344e-01 -2.4545565e-03 
3.0858380e-01 2.8034946e-01 -7.4733198e-03 
3.0425426e-01 2.7589175e-01 -6.0231690e-03 
3.0423936e-01 2.7571365e-01 -3.5598229e-03 
3.0297139e-01 2.7460653e-01 -6.1277999e-03 
3.0183223e-01 2.7329415e-01 -3.6308141e-03 
3.0298239e-01 2.7438858e-01 -2.6673877e-03 
3.0176082e-01 2.7336326e-01 -5.7596178e-03 
3.0175692e-01 2.7312782e-01 -2.2664452e-03 
3.0084550e-01 2.7238157e-01 -4.8502828e-03 
3.0076200e-01 2.7213740e-01 -2.4396221e-03 
3.0211556e-01 2.7373955e-01 -6.0556135e-03 
3.0210254e-01 2.7355033e-01 -3.3842903e-03 
2.9978383e-01 2.7122995e-01 -3.6000581e-03 
3.0269229e-01 2.7432704e-01 -6.1562485e-03 
3.0058134e-01 2.7220041e-01 -6.1414847e-03 
3.0266446e-01 2.7421322e-01 -4.8532519e-03 
3.0058908e-01 2.7197650e-01 -2.6278605e-03 
3.0504477e-01 2.7678409e-01 -7.4801762e-03 
2.9934424e-01 2.7093074e-01 -5.7724612e-03 
2.9933769e-01 2.7068922e-01 -2.2171664e-03 
2.9878852e-01 2.7031031e-01 -4.8441710e-03 
2.9885110e-01 2.7021661e-01 -2.4775590e-03 
2.9947969e-01 2.7108347e-01 -6.0266568e-03 
2.9771906e-01 2.6914939e-01 -3.5691930e-03 
2.9945680e-01 2.7089569e-01 -3.5231151e-03 
2.9813844e-01 2.6974159e-01 -6.1547481e-03 
2.9814455e-01 2.6951301e-01 -2.5875969e-03 
2.9671448e-01 2.6822200e-01 -4.8384243e-03 
2.9676187e-01 2.6811460e-01 -2.4883628e-03 
2.9687384e-01 2.6844451e-01 -5.7848827e-03 
3.0148962e-01 2.7320290e-01 -7.4862787e-03 
2.9686639e-01 2.6819873e-01 -2.1667199e-03 
2.9724562e-01 2.6883617e-01 -6.0593234e-03 
2.9563704e-01 2.6705211e-01 -3.5383087e-03 
2.9722732e-01 2.6863962e-01 -3.3396431e-03 
2.9572833e-01 2.6719329e-01 -4.2904075e-03 
2.9812098e-01 2.6972374e-01 -6.1560166e-03 
2.9809293e-01 2.6960921e-01 -4.8375935e-03 
2.9564092e-01 2.6722854e-01 -6.1675557e-03 
2.9564661e-01 2.6699671e-01 -2.5468438e-03 
2.9462358e-01 2.6611730e-01 -4.8322845e-03 
2.9468799e-01 2.6602188e-01 -2.4007640e-03 
2.9434773e-01 2.6590306e-01 -5.7972991e-03 
2.9434067e-01 2.6565352e-01 -2.1151442e-03 
2.9353791e-01 2.6493767e-01 -3.5067550e-03 
2.9791877e-01 2.6960722e-01 -7.4916310e-03 
2.9449046e-01 2.6606119e-01 -6.0274228e-03 
2.9446501e-01 2.6586956e-01 -3.4880424e-03 
2.9271075e-01 2.6402494e-01 -2.2881688e-03 
2.9251549e-01 2.6399562e-01 -4.8255138e-03 
2.9308635e-01 2.6465830e-01 -6.1798375e-03 
2.9309312e-01 2.6442483e-01 -2.5053893e-03 
2.9142141e-01 2.6280612e-01 -3.4745710e-03 
2.9176384e-01 2.6330364e-01 -5.8091339e-03 
2.9175854e-01 2.6305258e-01 -2.0631524e-03 
2.9215387e-01 2.6371181e-01 -6.0598264e-03 
2.9343793e-01 2.6501262e-01 -6.1939065e-03 
2.9213545e-01 2.6351359e-01 -3.2959089e-03 
2.9336908e-01 2.6486632e-01 -5.0130212e-03 
2.9038954e-01 2.6185665e-01 -4.8185964e-03 
2.9045621e-01 2.6175934e-01 -2.3218982e-03 
2.9433286e-01 2.6599836e-01 -7.4958997e-03 
2.9047307e-01 2.6202968e-01 -6.1912308e-03 
2.9048276e-01 2.6179641e-01 -2.4642162e-03 
2.8928757e-01 2.6065812e-01 -3.4423303e-03 
2.8911993e-01 2.6064497e-01 -5.8200834e-03 
2.8911823e-01 2.6039410e-01 -2.0103650e-03 
2.8824639e-01 2.5970066e-01 -4.8112115e-03 
2.8831396e-01 2.5960320e-01 -2.2822667e-03 
2.8927052e-01 2.6080918e-01 -6.0243201e-03 
2.8924885e-01 2.6062056e-01 -3.4547886e-03 
2.8713578e-01 2.5849310e-01 -3.4103659e-03 
2.8779879e-01 2.5934091e-01 -6.2015485e-03 
2.8781295e-01 2.5910929e-01 -2.4217905e-03 
2.9072875e-01 2.6237145e-01 -7.4983104e-03 
2.8641415e-01 2.5792500e-01 -5.8305124e-03 
2.8608510e-01 2.5752771e-01 -4.8040492e-03 
2.8615299e-01 2.5742894e-01 -2.2419335e-03 
2.8641745e-01 2.5767565e-01 -1.9554079e-03 
2.8817287e-01 2.5971705e-01 -6.2065739e-03 
2.8682393e-01 2.5835052e-01 -6.0560177e-03 
2.8810742e-01 2.5957721e-01 -5.0623138e-03 
2.8681278e-01 2.5815824e-01 -3.2534604e-03 
2.8496563e-01 2.5630942e-01 -3.3777726e-03 
2.8506175e-01 2.5658911e-01 -6.2114983e-03 
2.8508118e-01 2.5636113e-01 -2.3788845e-03 
2.8390497e-01 2.5533545e-01 -4.7965753e-03 
2.8397462e-01 2.5523642e-01 -2.2015837e-03 
2.8364372e-01 2.5514066e-01 -5.8402633e-03 
2.8365427e-01 2.5489518e-01 -1.9003572e-03 
2.8710902e-01 2.5873071e-01 -7.4996306e-03 
2.8277677e-01 2.5410771e-01 -3.3452979e-03 
2.8380311e-01 2.5531131e-01 -6.0174335e-03 
2.8379098e-01 2.5513202e-01 -3.4237846e-03 
2.8170645e-01 2.5312606e-01 -4.7888816e-03 
2.8177649e-01 2.5302556e-01 -2.1607620e-03 
2.8225821e-01 2.5377220e-01 -6.2195170e-03 
2.8228635e-01 2.5354993e-01 -2.3360543e-03 
2.8056920e-01 2.5188780e-01 -3.3117714e-03 
2.8080687e-01 2.5229034e-01 -5.8489689e-03 
2.8082561e-01 2.5205082e-01 -1.8436275e-03 
2.8265670e-01 2.5417224e-01 -6.2204683e-03 
2.8260148e-01 2.5404581e-01 -5.1193484e-03 
2.8097007e-01 2.5246403e-01 -6.0107810e-03 
2.8347376e-01 2.5507605e-01 -7.4998168e-03 
2.7948895e-01 2.5089756e-01 -4.7798553e-03 
2.7956039e-01 2.5079739e-01 -2.1201870e-03 
2.8096578e-01 2.5229332e-01 -3.4091729e-03 
2.7938771e-01 2.5088817e-01 -6.2268535e-03 
2.7942470e-01 2.5067353e-01 -2.2921700e-03 
2.7834281e-01 2.4965051e-01 -3.2787954e-03 
2.7790007e-01 2.4937165e-01 -5.8568548e-03 
2.7793077e-01 2.4914019e-01 -1.7859981e-03 
2.7725282e-01 2.4865255e-01 -4.7709914e-03 
2.7732438e-01 2.4855064e-01 -2.0787842e-03 
2.7806869e-01 2.4954887e-01 -6.0036900e-03 
2.7705428e-01 2.4834260e-01 -3.0681849e-03 
2.7807420e-01 2.4938858e-01 -3.3956922e-03 
2.7609733e-01 2.4739456e-01 -3.2446345e-03 
2.7981916e-01 2.5140196e-01 -7.4976357e-03 
2.7812794e-01 2.4961922e-01 -6.1783297e-03 
2.7644604e-01 2.4793488e-01 -6.2310467e-03 
2.7812424e-01 2.4953601e-01 -4.9251793e-03 
2.7649537e-01 2.4773042e-01 -2.2479279e-03 
2.7499685e-01 2.4638730e-01 -4.7610244e-03 
2.7506962e-01 2.4628590e-01 -2.0369634e-03 
2.7492315e-01 2.4638340e-01 -5.8617000e-03 
2.7496532e-01 2.4616159e-01 -1.7289240e-03 
2.7383250e-01 2.4512047e-01 -3.2113360e-03 
2.7509576e-01 2.4656348e-01 -5.9952564e-03 
2.7511263e-01 2.4641591e-01 -3.3825724e-03 
2.7343220e-01 2.4491012e-01 -6.2349825e-03 
2.7272183e-01 2.4410386e-01 -4.7515617e-03 
2.7279517e-01 2.4400178e-01 -1.9947588e-03 
2.7349469e-01 2.4471784e-01 -2.2027087e-03 
2.7614871e-01 2.4771599e-01 -7.4951081e-03 
2.7187103e-01 2.4332145e-01 -5.8676270e-03 
2.7154744e-01 2.4282637e-01 -3.1772156e-03 
2.7409983e-01 2.4552725e-01 -5.4055746e-03 
2.7404985e-01 2.4553765e-01 -6.3656694e-03 
2.7192843e-01 2.4311262e-01 -1.6682253e-03 
2.7204859e-01 2.4350527e-01 -5.9846188e-03 
2.7207828e-01 2.4337119e-01 -3.3706469e-03 
2.7042574e-01 2.4180084e-01 -4.7419094e-03 
2.7049994e-01 2.4169807e-01 -1.9522683e-03 
2.7034184e-01 2.4181020e-01 -6.2370710e-03 
2.7042076e-01 2.4163258e-01 -2.1574178e-03 
2.6924109e-01 2.4051209e-01 -3.1427243e-03 
2.7246246e-01 2.4401517e-01 -7.4886614e-03 
2.6874036e-01 2.4018265e-01 -5.8720834e-03 
2.6881605e-01 2.3998915e-01 -1.6061740e-03 
2.6811054e-01 2.3948017e-01 -4.7295690e-03 
2.6818514e-01 2.3937593e-01 -1.9104710e-03 
2.7040595e-01 2.4182108e-01 -5.3910431e-03 
2.7035737e-01 2.4183272e-01 -6.3583311e-03 
2.6887536e-01 2.4032247e-01 -5.9720823e-03 
2.6889387e-01 2.4017754e-01 -3.3396957e-03 
2.6746121e-01 2.3874722e-01 -3.4379479e-03 
2.6691803e-01 2.3818286e-01 -3.1072069e-03 
2.6719934e-01 2.3866023e-01 -6.2380056e-03 
2.6731312e-01 2.3851456e-01 -2.0898620e-03 
2.6579556e-01 2.3715866e-01 -4.6955384e-03 
2.6587132e-01 2.3705673e-01 -1.8763834e-03 
2.6558581e-01 2.3702219e-01 -5.8719590e-03 
2.6876029e-01 2.4030097e-01 -7.4802889e-03 
2.6571321e-01 2.3687831e-01 -1.5468029e-03 
2.6461324e-01 2.3587321e-01 -3.0736111e-03 
2.6565027e-01 2.3709059e-01 -5.9669935e-03 
2.6575699e-01 2.3702852e-01 -3.2321219e-03 
2.6670617e-01 2.3811229e-01 -5.3820587e-03 
2.6665908e-01 2.3812501e-01 -6.3512884e-03 
2.6438603e-01 2.3566495e-01 -3.3929343e-03 
2.6349920e-01 2.3485819e-01 -4.6612108e-03 
2.6407239e-01 2.3552772e-01 -6.2383623e-03 
2.6357394e-01 2.3475489e-01 -1.8422734e-03 
2.6423651e-01 2.3543039e-01 -2.0122326e-03 
2.6232633e-01 2.3358183e-01 -3.0385514e-03 
2.6248956e-01 2.3392221e-01 -5.8703297e-03 
2.6266259e-01 2.3382227e-01 -1.4891749e-03 
2.6505983e-01 2.3659140e-01 -7.4697160e-03 
2.6255244e-01 2.3398925e-01 -5.9681004e-03 
2.6270780e-01 2.3396924e-01 -3.1214473e-03 
2.6121891e-01 2.3257408e-01 -4.6274136e-03 
2.6129436e-01 2.3247266e-01 -1.8088066e-03 
2.6288202e-01 2.3432896e-01 -6.1286632e-03 
2.6295421e-01 2.3432127e-01 -4.8226658e-03 
2.6100254e-01 2.3245582e-01 -6.2372941e-03 
2.6120996e-01 2.3239718e-01 -1.9364266e-03 
2.6058739e-01 2.3186095e-01 -3.3341947e-03 
2.6005653e-01 2.3131007e-01 -3.0047621e-03 
2.5966230e-01 2.3081815e-01 -1.4318465e-03 
2.5944772e-01 2.3087910e-01 -5.8670240e-03 
2.5895712e-01 2.3030956e-01 -4.5924238e-03 
2.5903264e-01 2.3020978e-01 -1.7761914e-03 
2.5970733e-01 2.3096223e-01 -3.0136833e-03 
2.5950903e-01 2.3094510e-01 -5.9696739e-03 
2.6136890e-01 2.3289643e-01 -7.4585946e-03 
2.5780386e-01 2.2905664e-01 -2.9720378e-03 
2.5823292e-01 2.2941591e-01 -1.8626438e-03 
2.5798613e-01 2.2944032e-01 -6.2350268e-03 
2.5928432e-01 2.3074274e-01 -6.3347304e-03 
2.5903192e-01 2.3040098e-01 -4.8801447e-03 
2.5671217e-01 2.2806405e-01 -4.5576962e-03 
2.5674379e-01 2.2792213e-01 -1.7667615e-03 
2.5671044e-01 2.2786336e-01 -1.3730564e-03 
2.5646049e-01 2.2789304e-01 -5.8649709e-03 
2.5583705e-01 2.2711462e-01 -3.3523079e-03 
2.5556746e-01 2.2681966e-01 -2.9377623e-03 
2.5675401e-01 2.2800387e-01 -2.9099723e-03 
2.5616047e-01 2.2759274e-01 -5.8928016e-03 
2.5530204e-01 2.2648464e-01 -1.7928551e-03 
2.5502369e-01 2.2647889e-01 -6.2309629e-03 
2.5448242e-01 2.2583379e-01 -4.5216465e-03 
2.5769091e-01 2.2921892e-01 -7.4465456e-03 
2.5455725e-01 2.2573532e-01 -1.7103088e-03 
2.5419191e-01 2.2546230e-01 -3.2003676e-03 
2.5566939e-01 2.2703940e-01 -4.8521482e-03 
2.5334761e-01 2.2460155e-01 -2.9047965e-03 
2.5380316e-01 2.2495911e-01 -1.3210499e-03 
2.5352493e-01 2.2495937e-01 -5.8578355e-03 
2.5561109e-01 2.2707191e-01 -6.3225371e-03 
2.5384870e-01 2.2509757e-01 -2.8073920e-03 
2.5358331e-01 2.2502287e-01 -5.9676636e-03 
2.5226960e-01 2.2362290e-01 -4.4871350e-03 
2.5234482e-01 2.2352512e-01 -1.6779457e-03 
2.5241879e-01 2.2360310e-01 -1.7224333e-03 
2.5211251e-01 2.2357127e-01 -6.2245289e-03 
2.5145793e-01 2.2270916e-01 -2.7952127e-03 
2.5114301e-01 2.2240026e-01 -2.8719609e-03 
2.5401875e-01 2.2554970e-01 -7.4306480e-03 
2.5094321e-01 2.2210264e-01 -1.2654064e-03 
2.5063908e-01 2.2207889e-01 -5.8515309e-03 
2.5232467e-01 2.2367248e-01 -4.4127190e-03 
2.5207448e-01 2.2351643e-01 -5.9501049e-03 
2.5007173e-01 2.2142902e-01 -4.4515324e-03 
2.5098872e-01 2.2223656e-01 -2.7084195e-03 
2.4992353e-01 2.2110000e-01 -1.5146007e-03 
2.5069633e-01 2.2214165e-01 -5.9670638e-03 
2.4895312e-01 2.2021472e-01 -2.8403741e-03 
2.4957933e-01 2.2076626e-01 -1.6525063e-03 
2.4925040e-01 2.2071545e-01 -6.2169610e-03 
2.4796551e-01 2.1915454e-01 -1.6151074e-03 
2.4785370e-01 2.1920528e-01 -4.2603933e-03 
2.4812718e-01 2.1929157e-01 -1.2117241e-03 
2.4780005e-01 2.1924780e-01 -5.8436720e-03 
2.5035495e-01 2.2189003e-01 -7.4114539e-03 
2.4725634e-01 2.1856581e-01 -3.5473476e-03 
2.4817279e-01 2.1942422e-01 -2.6124706e-03 
2.4785663e-01 2.1930902e-01 -5.9657469e-03 
2.4677972e-01 2.1804707e-01 -2.8095704e-03 
2.4678338e-01 2.1797812e-01 -1.5877027e-03 
2.4828982e-01 2.1976146e-01 -6.2897638e-03 
2.4833032e-01 2.1974331e-01 -5.3255400e-03 
2.4609253e-01 2.1727875e-01 -1.4514726e-03 
2.4643402e-01 2.1790530e-01 -6.2070470e-03 
2.4592191e-01 2.1729989e-01 -4.5815860e-03 
2.4748564e-01 2.1880427e-01 -3.7150804e-03 
2.4707997e-01 2.1852632e-01 -5.8283047e-03 
2.4535273e-01 2.1652555e-01 -1.1607278e-03 
2.4501124e-01 2.1646667e-01 -5.8287308e-03 
2.4462256e-01 2.1589600e-01 -2.7780365e-03 
2.4539922e-01 2.1665449e-01 -2.5193947e-03 
2.4506639e-01 2.1652760e-01 -5.9631015e-03 
2.4670017e-01 2.1824344e-01 -7.3878905e-03 
2.4370214e-01 2.1489382e-01 -1.3679898e-03 
2.4354643e-01 2.1493395e-01 -4.5767883e-03 
2.4403040e-01 2.1523079e-01 -1.5234560e-03 
2.4366677e-01 2.1514893e-01 -6.1971527e-03 
2.4248073e-01 2.1376123e-01 -2.7461583e-03 
2.4464490e-01 2.1612826e-01 -6.2686335e-03 
2.4468362e-01 2.1610928e-01 -5.3073824e-03 
2.4262172e-01 2.1380176e-01 -1.1074244e-03 
2.4226716e-01 2.1373484e-01 -5.8173179e-03 
2.4266799e-01 2.1392940e-01 -2.4284329e-03 
2.4125187e-01 2.1264462e-01 -4.5015099e-03 
2.4204345e-01 2.1352048e-01 -6.0111284e-03 
2.4251905e-01 2.1385024e-01 -3.5867281e-03 
2.4098682e-01 2.1218762e-01 -1.3243308e-03 
2.4131823e-01 2.1252771e-01 -1.4605585e-03 
2.4094479e-01 2.1243776e-01 -6.1833709e-03 
2.4035236e-01 2.1164232e-01 -2.7150409e-03 
2.4305862e-01 2.1461302e-01 -7.3606763e-03 
2.3974794e-01 2.1107852e-01 -3.3566281e-03 
2.3992972e-01 2.1112262e-01 -1.0575006e-03 
2.4092282e-01 2.1239218e-01 -5.7793884e-03 
2.3934960e-01 2.1073149e-01 -4.1497829e-03 
2.3956797e-01 2.1104620e-01 -5.8033708e-03 
2.3939268e-01 2.1061274e-01 -1.4945698e-03 
2.3997658e-01 2.1124712e-01 -2.3397803e-03 
2.4101155e-01 2.1250835e-01 -6.2441030e-03 
2.4104924e-01 2.1248861e-01 -5.2852621e-03 
2.3962128e-01 2.1110599e-01 -5.9530819e-03 
2.3850155e-01 2.0970897e-01 -1.1851800e-03 
2.3823972e-01 2.0953979e-01 -2.6848423e-03 
2.3864548e-01 2.0986736e-01 -1.3970904e-03 
2.3826598e-01 2.0977178e-01 -6.1691203e-03 
2.3760636e-01 2.0883764e-01 -1.4930490e-03 
2.3721088e-01 2.0860964e-01 -4.2307931e-03 
2.3727767e-01 2.0848176e-01 -1.0076498e-03 
2.3691083e-01 2.0840415e-01 -5.7885274e-03 
2.3942666e-01 2.1099636e-01 -7.3324055e-03 
2.3732403e-01 2.0860521e-01 -2.2536544e-03 
2.3614113e-01 2.0745245e-01 -2.6538610e-03 
2.3669365e-01 2.0819794e-01 -5.9943739e-03 
2.3580608e-01 2.0703204e-01 -1.2164002e-03 
2.3715754e-01 2.0852000e-01 -3.6264120e-03 
2.3601149e-01 2.0724638e-01 -1.3376123e-03 
2.3572181e-01 2.0704852e-01 -2.8754463e-03 
2.3525219e-01 2.0667943e-01 -4.4970112e-03 
2.3738733e-01 2.0890281e-01 -6.2182164e-03 
2.3562945e-01 2.0714980e-01 -6.1536338e-03 
2.3742375e-01 2.0888251e-01 -5.2625057e-03 
2.3466308e-01 2.0588346e-01 -9.6084765e-04 
2.3561341e-01 2.0710760e-01 -5.7083378e-03 