# vtk DataFile Version 4.0
vtk output
ASCII
DATASET UNSTRUCTURED_GRID
POINTS 4496 float
-4.3633327e-01 9.6409470e-01 4.4200001e+01 
-4.3633258e-01 9.6409065e-01 4.4074627e+01 
-3.2152572e-01 9.1279918e-01 4.4200001e+01 
-3.8534868e-01 8.4052670e-01 4.4200001e+01 
-3.9589554e-01 8.5545403e-01 4.4010014e+01 
-3.2616228e-01 9.1667932e-01 4.4011734e+01 
-4.3633190e-01 9.6408653e-01 4.3948376e+01 
-2.1293370e-01 8.4677851e-01 4.4200001e+01 
-2.9042658e-01 7.3813015e-01 4.4200001e+01 
-2.1010752e-01 8.4669363e-01 4.4073502e+01 
-2.8908840e-01 7.3604190e-01 4.4072292e+01 
-3.9589015e-01 8.5505831e-01 4.3883316e+01 
-3.2487559e-01 9.1697580e-01 4.3885036e+01 
-2.0722924e-01 8.4660655e-01 4.3944645e+01 
-1.1981077e-01 7.7773046e-01 4.4200001e+01 
-2.8772619e-01 7.3391593e-01 4.3942276e+01 
-4.3633121e-01 9.6408242e-01 4.3821228e+01 
-1.9739023e-01 6.6468561e-01 4.4200001e+01 
-2.9444304e-01 7.8727525e-01 4.3879974e+01 
-8.7554991e-02 7.5255024e-01 4.4042213e+01 
-1.6445170e-01 6.4084798e-01 4.4041008e+01 
-3.2357255e-01 9.1726828e-01 4.3757431e+01 
-3.9587301e-01 8.5463828e-01 4.3755711e+01 
-2.0429766e-01 8.4651643e-01 4.3813354e+01 
-2.8633916e-01 7.3175091e-01 4.3809875e+01 
-2.6899619e-02 6.8901783e-01 4.4200001e+01 
-1.0567340e-01 7.7152997e-01 4.3875790e+01 
-4.3633053e-01 9.6407831e-01 4.3693161e+01 
-8.7133333e-02 5.9509218e-01 4.4200001e+01 
-1.8777622e-01 6.5475601e-01 4.3873402e+01 
-2.0131156e-01 8.4642249e-01 4.3679543e+01 
-3.2225290e-01 9.1755641e-01 4.3628902e+01 
-3.9584404e-01 8.5419410e-01 4.3627178e+01 
-1.0114321e-03 6.6670936e-01 4.3939713e+01 
-2.8492665e-01 7.2954547e-01 4.3675007e+01 
-1.0131179e-01 7.7015632e-01 4.3743176e+01 
-6.0682178e-02 5.7631296e-01 4.3938457e+01 
3.9444737e-02 6.2338209e-01 4.4053139e+01 
-1.8470748e-01 6.5131217e-01 4.3739727e+01 
-7.0938184e-03 5.4737431e-01 4.4052326e+01 
-4.3632981e-01 9.6407413e-01 4.3564159e+01 
7.6947339e-02 5.8804804e-01 4.4200001e+01 
-1.2721874e-02 6.8194175e-01 4.3817982e+01 
-7.7214435e-02 5.8474159e-01 4.3819649e+01 
4.0195532e-02 5.2425718e-01 4.4200001e+01 
-1.9826968e-01 8.4632379e-01 4.3543118e+01 
-9.6842363e-02 7.6872379e-01 4.3607994e+01 
-3.2091641e-01 9.1783977e-01 4.3499420e+01 
-3.9580306e-01 8.5372573e-01 4.3497700e+01 
-2.8348783e-01 7.2729832e-01 4.3537586e+01 
-1.8155001e-01 6.4778340e-01 4.3603539e+01 
1.5678726e-01 5.2239102e-01 4.4060219e+01 
1.0298219e-02 6.6009766e-01 4.3674484e+01 
1.3250886e-01 4.7546524e-01 4.4058990e+01 
-4.3632913e-01 9.6407002e-01 4.3434200e+01 
-5.0139543e-02 5.6696451e-01 4.3671154e+01 
1.3504514e-01 5.4209155e-01 4.3856747e+01 
1.0361936e-01 4.8715758e-01 4.3855240e+01 
2.0846681e-01 4.8028421e-01 4.4200001e+01 
1.9279444e-01 4.4799727e-01 4.4200001e+01 
-9.2261828e-02 7.6722860e-01 4.3470158e+01 
-1.4701239e-03 6.7547697e-01 4.3552124e+01 
-1.9517080e-01 8.4621930e-01 4.3403992e+01 
-3.1956279e-01 9.1811794e-01 4.3368977e+01 
-3.9574999e-01 8.5323322e-01 4.3367252e+01 
-1.7830023e-01 6.4416617e-01 4.3464752e+01 
-6.7131944e-02 5.7555372e-01 4.3547829e+01 
-2.8202194e-01 7.2500783e-01 4.3397518e+01 
-4.3632844e-01 9.6406585e-01 4.3303261e+01 
1.5138821e-01 5.3037512e-01 4.3609200e+01 
1.2119007e-01 4.7490793e-01 4.3606068e+01 
-8.7566733e-02 7.6566672e-01 4.3329563e+01 
-1.7495437e-01 6.4045686e-01 4.3323273e+01 
-3.1819177e-01 9.1839045e-01 4.3237537e+01 
-3.9568463e-01 8.5271639e-01 4.3235813e+01 
2.2269404e-02 6.5294570e-01 4.3398811e+01 
-1.9201367e-01 8.4610778e-01 4.3262066e+01 
-3.8899176e-02 5.5709696e-01 4.3393635e+01 
-2.8052819e-01 7.2267252e-01 4.3254715e+01 
3.7877345e-01 3.8273901e-01 4.4200001e+01 
-4.3632776e-01 9.6406174e-01 4.3171322e+01 
3.9241230e-01 3.7329337e-01 4.3965439e+01 
1.0283732e-02 6.6872352e-01 4.3271511e+01 
-5.6385640e-02 5.6585240e-01 4.3265472e+01 
-8.2753494e-02 7.6403379e-01 4.3186119e+01 
-4.0345609e-01 8.6371827e-01 4.3104889e+01 
-3.1680310e-01 9.1865683e-01 4.3105087e+01 
-1.7150842e-01 6.3665158e-01 4.3179005e+01 
-1.8879703e-01 8.4598809e-01 4.3117241e+01 
-2.7900568e-01 7.2029078e-01 4.3109074e+01 
4.0610775e-01 3.6380205e-01 4.3729839e+01 
1.6776134e-01 5.1882964e-01 4.3331150e+01 
-4.3632707e-01 9.6405768e-01 4.3038357e+01 
1.4031014e-01 4.6124566e-01 4.3307755e+01 
3.4952711e-02 6.4519531e-01 4.3111935e+01 
-7.7818394e-02 7.6232505e-01 4.3039719e+01 
-3.1539652e-01 9.1891652e-01 4.2971603e+01 
-3.9551663e-01 8.5160977e-01 4.2969879e+01 
-2.6899155e-02 5.4666573e-01 4.3105160e+01 
-1.6795819e-01 6.3274628e-01 4.3031849e+01 
-1.8551964e-01 8.4585863e-01 4.2969406e+01 
4.1985780e-01 3.5425979e-01 4.3493168e+01 
-2.7745360e-01 7.1786088e-01 4.2960495e+01 
-4.3632638e-01 9.6405357e-01 4.2904346e+01 
2.2723136e-02 6.6139150e-01 4.2979332e+01 
-4.4916678e-02 5.5559248e-01 4.2971806e+01 
-3.1397179e-01 9.1916907e-01 4.2837063e+01 
-3.9541367e-01 8.5101974e-01 4.2835335e+01 
-7.2757579e-02 7.6053542e-01 4.2890255e+01 
-1.6429928e-01 6.2873662e-01 4.2881699e+01 
1.8463810e-01 5.0694346e-01 4.3035332e+01 
-1.8218029e-01 8.4571803e-01 4.2818455e+01 
1.5503895e-01 4.5003417e-01 4.3027725e+01 
-2.7587104e-01 7.1538109e-01 4.2808868e+01 
4.3366045e-01 3.4466109e-01 4.3255390e+01 
-4.3632573e-01 9.6404958e-01 4.2769268e+01 
-3.8429454e-01 8.3484912e-01 4.2710606e+01 
-3.1252861e-01 9.1941386e-01 4.2701439e+01 
4.8404284e-02 6.3678014e-01 4.2813030e+01 
-1.4070326e-02 5.3562075e-01 4.2804932e+01 
-6.7567028e-02 7.5865942e-01 4.2737610e+01 
-1.6052702e-01 6.2461799e-01 4.2728443e+01 
-1.7877772e-01 8.4556442e-01 4.2664265e+01 
-4.3632504e-01 9.6404558e-01 4.2633099e+01 
-2.7425703e-01 7.1284944e-01 4.2654083e+01 
4.4751364e-01 3.3500037e-01 4.3016472e+01 
3.5901129e-02 6.5341437e-01 4.2674721e+01 
-3.7959340e-01 8.2794034e-01 4.2568317e+01 
-3.1106678e-01 9.1965032e-01 4.2564713e+01 
-3.2659348e-02 5.4472327e-01 4.2665997e+01 
2.0396979e-01 4.9291667e-01 4.2740131e+01 
-6.2242586e-02 7.5669110e-01 4.2581669e+01 
1.7765003e-01 4.3475360e-01 4.2732578e+01 
-1.5663649e-01 6.2038553e-01 4.2571964e+01 
-4.3632439e-01 9.6404165e-01 4.2495808e+01 
-1.7531081e-01 8.4539592e-01 4.2506718e+01 
-2.7261066e-01 7.1026409e-01 4.2496017e+01 
-3.0958602e-01 9.1987789e-01 4.2426853e+01 
-3.7859210e-01 8.2613736e-01 4.2421188e+01 
4.6141517e-01 3.2527190e-01 4.2776375e+01 
6.2686495e-02 6.2762415e-01 4.2501175e+01 
-3.3570320e-04 5.2390522e-01 4.2492062e+01 
-5.6779940e-02 7.5462401e-01 4.2422298e+01 
-4.3632373e-01 9.6403772e-01 4.2357380e+01 
-1.5262254e-01 6.1603409e-01 4.2412144e+01 
-1.7177837e-01 8.4521037e-01 4.2345684e+01 
-2.7093092e-01 7.0762289e-01 4.2334549e+01 
-3.0808610e-01 9.2009580e-01 4.2287842e+01 
-3.8275370e-01 8.3137155e-01 4.2275047e+01 
4.9876589e-02 6.4471585e-01 4.2356720e+01 
-1.9539909e-02 5.3318781e-01 4.2347118e+01 
-4.3632311e-01 9.6403396e-01 4.2217781e+01 
2.1959943e-01 4.8236796e-01 4.2385345e+01 
-5.1174615e-02 7.5245124e-01 4.2259373e+01 
1.9034323e-01 4.2346162e-01 4.2378918e+01 
-1.4847966e-01 6.1155808e-01 4.2248856e+01 
4.7536272e-01 3.1546980e-01 4.2535065e+01 
-1.6817927e-01 8.4500539e-01 4.2181026e+01 
-2.6921678e-01 7.0492369e-01 4.2169544e+01 
-3.0656675e-01 9.2030340e-01 4.2147648e+01 
-3.9470181e-01 8.4769493e-01 4.2145920e+01 
7.7868804e-02 6.1763972e-01 4.2175373e+01 
-4.3632248e-01 9.6403021e-01 4.2076988e+01 
1.4390758e-02 5.1145434e-01 4.2165581e+01 
-4.5421973e-02 7.5016522e-01 4.2092751e+01 
-1.4420210e-01 6.0695171e-01 4.2081959e+01 
-3.0502778e-01 9.2049998e-01 4.2006248e+01 
-4.0175444e-01 8.5747409e-01 4.2004128e+01 
-1.6451253e-01 8.4477836e-01 4.2012604e+01 
4.8935395e-01 3.0558801e-01 4.2292507e+01 
-2.6746723e-01 7.0216429e-01 4.2000870e+01 
6.4714879e-02 6.3520777e-01 4.2024277e+01 
-4.3632188e-01 9.6402657e-01 4.1934975e+01 
-5.4755262e-03 5.2092212e-01 4.2014156e+01 
-2.3078828e-01 8.1064087e-01 4.1931458e+01 
2.3550548e-01 4.7116494e-01 4.2073269e+01 
2.0610523e-01 4.1123796e-01 4.2066772e+01 
-3.9517213e-02 7.4775779e-01 4.1922287e+01 
-1.3978374e-01 6.0220873e-01 4.1911320e+01 
-3.0346894e-01 9.2068475e-01 4.1863613e+01 
-3.9432141e-01 8.4618556e-01 4.1861881e+01 
-1.6077711e-01 8.4452641e-01 4.1840263e+01 
-2.6568118e-01 6.9934219e-01 4.1828377e+01 
-4.3632129e-01 9.6402299e-01 4.1791718e+01 
5.0338638e-01 2.9562023e-01 4.2048656e+01 
9.4028555e-02 6.0672593e-01 4.1834507e+01 
3.0205652e-02 4.9819478e-01 4.1824417e+01 
-3.8116732e-01 8.2744831e-01 4.1725647e+01 
-3.0189002e-01 9.2085695e-01 4.1719719e+01 
-3.3455357e-02 7.4522001e-01 4.1747829e+01 
-1.3521814e-01 5.9732240e-01 4.1736786e+01 
-4.3632072e-01 9.6401960e-01 4.1647179e+01 
-1.5697217e-01 8.4424627e-01 4.1663853e+01 
-2.6385748e-01 6.9645494e-01 4.1651920e+01 
8.0488607e-02 6.2478805e-01 4.1676235e+01 
2.6870471e-01 4.4547972e-01 4.1752304e+01 
9.6269641e-03 5.0785345e-01 4.1665993e+01 
2.4764967e-01 3.8646612e-01 4.1743168e+01 
-3.0029076e-01 9.2101562e-01 4.1574532e+01 
-3.9388368e-01 8.4456980e-01 4.1572796e+01 
5.1745731e-01 2.8556010e-01 4.1803486e+01 
-2.7231261e-02 7.4254233e-01 4.1569210e+01 
-1.3049847e-01 5.9228569e-01 4.1558201e+01 
-4.3632016e-01 9.6401632e-01 4.1501339e+01 
-1.5309690e-01 8.4393430e-01 4.1483204e+01 
-2.6199502e-01 6.9349992e-01 4.1471333e+01 
-2.9867104e-01 9.2115986e-01 4.1428024e+01 
-3.9364263e-01 8.4372103e-01 4.1426289e+01 
1.1125199e-01 5.9476525e-01 4.1477348e+01 
4.7217656e-02 4.8404291e-01 4.1467384e+01 
-4.3631962e-01 9.6401310e-01 4.1354160e+01 
-2.0839609e-02 7.3971421e-01 4.1386261e+01 
-1.2561750e-01 5.8709091e-01 4.1375404e+01 
5.3156406e-01 2.7540097e-01 4.1556946e+01 
-1.4915068e-01 8.4358656e-01 4.1298138e+01 
-2.9703063e-01 9.2128879e-01 4.1280167e+01 
-3.9338648e-01 8.4284443e-01 4.1278431e+01 
-2.6009262e-01 6.9047421e-01 4.1286449e+01 
2.9365057e-01 4.2687622e-01 4.1391586e+01 
9.7278498e-02 6.1333776e-01 4.1311302e+01 
2.7470219e-01 3.6807936e-01 4.1382729e+01 
2.5872495e-02 4.9389899e-01 4.1301384e+01 
-4.3631911e-01 9.6401012e-01 4.1205620e+01 
-1.4274905e-02 7.3672432e-01 4.1198803e+01 
-1.2056758e-01 5.8173001e-01 4.1188221e+01 
-2.9536936e-01 9.2140132e-01 4.1130928e+01 
[...]
POINT_DATA 4496
FIELD FieldData 5
DISPLACEMENT 3 4496  float
3.7718303e-06 4.6323130e-06 -9.6611338e-08 
3.7154196e-06 4.5573697e-06 -9.6597915e-08 
4.0486184e-06 5.2518535e-06 -1.1767615e-07 
4.4386247e-06 4.9074315e-06 -4.5693383e-08 
4.2725042e-06 4.7369917e-06 -4.9899970e-08 
3.9429347e-06 5.1142447e-06 -1.1788313e-07 
3.6587649e-06 4.4821645e-06 -9.6567284e-08 
4.4049580e-06 5.8380406e-06 -1.2720935e-07 
4.9913315e-06 5.4197567e-06 -2.7174265e-08 
4.3483365e-06 5.7775233e-06 -1.2841889e-07 
4.9449391e-06 5.3504973e-06 -2.6511634e-08 
4.2176971e-06 4.6615401e-06 -4.9653515e-08 
3.8844737e-06 5.0455919e-06 -1.1865367e-07 
4.2907682e-06 5.7157863e-06 -1.2961918e-07 
4.7776880e-06 6.3407979e-06 -1.2801242e-07 
4.8976608e-06 5.2801647e-06 -2.5915142e-08 
3.6019048e-06 4.4066765e-06 -9.6529163e-08 
5.3878798e-06 5.9220542e-06 -2.5171335e-08 
4.5817587e-06 5.2067098e-06 -5.4829226e-08 
4.8422908e-06 6.4202604e-06 -1.2752768e-07 
5.4445741e-06 6.0044235e-06 -2.5750881e-08 
3.8259318e-06 4.9766891e-06 -1.1919724e-07 
4.1627045e-06 4.5859310e-06 -4.9516270e-08 
4.2322563e-06 5.6530143e-06 -1.3084339e-07 
4.8495422e-06 5.2086411e-06 -2.5292463e-08 
5.2566793e-06 6.8426425e-06 -1.1695302e-07 
4.6647747e-06 6.2224258e-06 -1.3061232e-07 
3.5452426e-06 4.3309506e-06 -9.6431478e-08 
5.7638517e-06 6.5174772e-06 -3.3160610e-08 
5.2935002e-06 5.7780780e-06 -2.3588210e-08 
4.1729127e-06 5.5891783e-06 -1.3202893e-07 
3.7672987e-06 4.9075379e-06 -1.1989306e-07 
4.1077501e-06 4.5102915e-06 -4.9516366e-08 
5.2592050e-06 6.8256413e-06 -1.1534595e-07 
4.8005018e-06 5.1360030e-06 -2.4716035e-08 
4.6124583e-06 6.1662636e-06 -1.3168743e-07 
5.7463872e-06 6.5028707e-06 -3.3775553e-08 
5.5445021e-06 7.1126160e-06 -1.0766782e-07 
5.2513283e-06 5.7146103e-06 -2.2978499e-08 
5.9545723e-06 6.8608492e-06 -4.0598259e-08 
3.4882387e-06 4.2554548e-06 -9.6388639e-08 
5.8021278e-06 7.4039958e-06 -1.0340408e-07 
5.1218326e-06 6.6889602e-06 -1.1918399e-07 
5.6467507e-06 6.3421494e-06 -3.1360241e-08 
6.1468168e-06 7.2054786e-06 -4.8089383e-08 
4.1125709e-06 5.5241030e-06 -1.3319952e-07 
4.5594074e-06 6.1091328e-06 -1.3273073e-07 
3.7085958e-06 4.8383617e-06 -1.2043205e-07 
4.0527193e-06 4.4344661e-06 -4.9211440e-08 
4.7508183e-06 5.0623285e-06 -2.4173435e-08 
5.2085702e-06 5.6502085e-06 -2.2340702e-08 
6.0931884e-06 7.7508785e-06 -1.0016915e-07 
5.1744933e-06 6.7262913e-06 -1.1652471e-07 
6.3460984e-06 7.6189754e-06 -6.0530162e-08 
3.4314062e-06 4.1793764e-06 -9.6267264e-08 
5.6747690e-06 6.3986404e-06 -3.2938814e-08 
5.8938417e-06 7.5097128e-06 -1.0225006e-07 
6.1895112e-06 7.3392439e-06 -5.4358541e-08 
6.3847301e-06 8.1153084e-06 -9.8250922e-08 
6.5592290e-06 8.0306172e-06 -7.1313167e-08 
4.5057059e-06 6.0510147e-06 -1.3385696e-07 
5.0363210e-06 6.5890126e-06 -1.2028897e-07 
4.0514365e-06 5.4581410e-06 -1.3441182e-07 
3.6496801e-06 4.7688595e-06 -1.2116863e-07 
3.9976580e-06 4.3586092e-06 -4.9173451e-08 
5.1651236e-06 5.5850242e-06 -2.1834920e-08 
5.5721007e-06 6.2329577e-06 -3.0594322e-08 
4.7001267e-06 4.9874452e-06 -2.3708697e-08 
3.3743274e-06 4.1034027e-06 -9.6295167e-08 
5.8436435e-06 7.4466575e-06 -1.0267048e-07 
6.1408291e-06 7.2821895e-06 -5.4819363e-08 
4.4513295e-06 5.9921031e-06 -1.3478079e-07 
5.1209245e-06 5.5187884e-06 -2.1239559e-08 
3.5909634e-06 4.6995033e-06 -1.2170416e-07 
3.9427796e-06 4.2826928e-06 -4.9263349e-08 
5.0881622e-06 6.6239795e-06 -1.1752024e-07 
3.9894330e-06 5.3908948e-06 -1.3550674e-07 
5.6010067e-06 6.2919639e-06 -3.2153419e-08 
4.6486352e-06 4.9114801e-06 -2.3224853e-08 
6.9121506e-06 9.0361618e-06 -1.1678127e-07 
3.3172180e-06 4.0271811e-06 -9.6355627e-08 
6.8550594e-06 8.9656651e-06 -1.1724881e-07 
4.9460095e-06 6.4827323e-06 -1.2133636e-07 
5.4953211e-06 6.1211545e-06 -2.9764424e-08 
4.3964019e-06 5.9321337e-06 -1.3580191e-07 
3.8261378e-06 4.1651920e-06 -5.2636032e-08 
3.5317034e-06 4.6295568e-06 -1.2242161e-07 
5.0762965e-06 5.4519310e-06 -2.0740805e-08 
3.9266879e-06 5.3228187e-06 -1.3664413e-07 
4.5967527e-06 4.8346869e-06 -2.2621911e-08 
6.7969504e-06 8.8938286e-06 -1.1766063e-07 
5.7779766e-06 7.3645324e-06 -1.0309860e-07 
3.2599214e-06 3.9512279e-06 -9.6420237e-08 
6.0763159e-06 7.2028447e-06 -5.5131849e-08 
5.0003341e-06 6.5185382e-06 -1.1839918e-07 
4.3408731e-06 5.8713567e-06 -1.3666977e-07 
3.4731677e-06 4.5599281e-06 -1.2281511e-07 
3.8324288e-06 4.1303088e-06 -4.9080292e-08 
5.5251098e-06 6.1829323e-06 -3.1370551e-08 
5.0307881e-06 5.3839804e-06 -2.0166524e-08 
3.8630651e-06 5.2533869e-06 -1.3762954e-07 
6.7377700e-06 8.8194347e-06 -1.1806683e-07 
4.5436427e-06 4.7565654e-06 -2.2208676e-08 
3.2033722e-06 3.8746671e-06 -9.6316334e-08 
4.8542070e-06 6.3731959e-06 -1.2225543e-07 
5.4163966e-06 6.0069151e-06 -2.9056148e-08 
3.4144095e-06 4.4901089e-06 -1.2364585e-07 
3.7776194e-06 4.0542805e-06 -4.9226308e-08 
4.2847432e-06 5.8094670e-06 -1.3763517e-07 
4.9848827e-06 5.3155095e-06 -1.9789363e-08 
5.7058282e-06 7.2732892e-06 -1.0358915e-07 
3.7985369e-06 5.1827001e-06 -1.3858569e-07 
6.0067050e-06 7.1103318e-06 -5.4952629e-08 
4.4901781e-06 4.6777977e-06 -2.2045402e-08 
6.6777998e-06 8.7440276e-06 -1.1899070e-07 
3.1461755e-06 3.7989805e-06 -9.6248868e-08 
3.8101728e-06 4.0432315e-06 -4.4677403e-08 
3.3558690e-06 4.4206936e-06 -1.2388153e-07 
4.9112336e-06 6.4102046e-06 -1.1917814e-07 
5.4471425e-06 6.0719135e-06 -3.0837747e-08 
4.2278139e-06 5.7468660e-06 -1.3848729e-07 
4.9380906e-06 5.2460987e-06 -1.9253875e-08 
3.7335249e-06 5.1115121e-06 -1.3944758e-07 
3.0894869e-06 3.7230905e-06 -9.6082900e-08 
4.4357539e-06 4.5973670e-06 -2.1775547e-08 
6.6164785e-06 8.6662740e-06 -1.1937537e-07 
4.7611038e-06 6.2608078e-06 -1.2304838e-07 
3.7865934e-06 3.9885117e-06 -4.2661370e-08 
3.2975672e-06 4.3509826e-06 -1.2382721e-07 
5.3353810e-06 5.8907085e-06 -2.8590179e-08 
5.6449940e-06 7.1948507e-06 -1.0382166e-07 
4.1709845e-06 5.6834924e-06 -1.3949575e-07 
5.9510212e-06 7.0501387e-06 -5.5944390e-08 
4.8911102e-06 5.1761167e-06 -1.9508835e-08 
3.0333981e-06 3.6470551e-06 -9.5643919e-08 
3.6675708e-06 5.0394078e-06 -1.4052942e-07 
4.3805248e-06 4.5166526e-06 -2.1651894e-08 
3.2390838e-06 4.2816723e-06 -1.2441841e-07 
3.7340517e-06 3.9127972e-06 -4.2590329e-08 
6.5550557e-06 8.5883248e-06 -1.1953061e-07 
4.8213801e-06 6.2994473e-06 -1.1959686e-07 
5.3675963e-06 5.9594104e-06 -3.0358009e-08 
4.1135327e-06 5.6195440e-06 -1.3979657e-07 
2.9770445e-06 3.5719816e-06 -9.5595993e-08 
4.8433794e-06 5.1054058e-06 -1.9362552e-08 
3.6012016e-06 4.9662972e-06 -1.4115003e-07 
4.3247969e-06 4.4352082e-06 -2.1561386e-08 
3.1813470e-06 4.2128418e-06 -1.2473294e-07 
3.6455199e-06 3.8113033e-06 -4.4420979e-08 
4.6675605e-06 6.1458022e-06 -1.2348522e-07 
5.2534933e-06 5.7731027e-06 -2.8089330e-08 
2.9213159e-06 3.4974055e-06 -9.5450666e-08 
5.5393280e-06 7.0612205e-06 -1.0427960e-07 
4.0558957e-06 5.5551282e-06 -1.4008161e-07 
5.8480978e-06 6.9025668e-06 -5.5328677e-08 
4.7953754e-06 5.0346962e-06 -1.9330477e-08 
6.4934129e-06 8.5093361e-06 -1.1954532e-07 
3.5343339e-06 4.8924567e-06 -1.4175798e-07 
4.2683314e-06 4.3529635e-06 -2.1545080e-08 
3.1244601e-06 4.1449125e-06 -1.2481104e-07 
3.5069888e-06 3.6793226e-06 -4.9250932e-08 
4.7318586e-06 6.1875767e-06 -1.1972504e-07 
2.8658526e-06 3.4228610e-06 -9.5416524e-08 
5.2876485e-06 5.8469518e-06 -3.0645090e-08 
3.9982065e-06 5.4903094e-06 -1.4035851e-07 
4.7477429e-06 4.9636747e-06 -1.9178163e-08 
3.0665669e-06 4.0761970e-06 -1.2549472e-07 
3.3972910e-06 3.5663995e-06 -5.2190423e-08 
3.4670632e-06 4.8180441e-06 -1.4235685e-07 
6.4314836e-06 8.4290641e-06 -1.1963184e-07 
4.2124143e-06 4.2708698e-06 -2.1292525e-08 
4.5748557e-06 6.0306761e-06 -1.2350294e-07 
2.8092131e-06 3.3482033e-06 -9.5480260e-08 
5.1713805e-06 5.6560593e-06 -2.8334949e-08 
3.6139313e-06 4.4257349e-06 -9.5848655e-08 
5.4587385e-06 6.9576054e-06 -1.0447582e-07 
5.7710017e-06 6.7991787e-06 -5.5683650e-08 
3.9406709e-06 5.4256011e-06 -1.4076609e-07 
4.6998248e-06 4.8928150e-06 -1.9066800e-08 
3.0085655e-06 4.0072096e-06 -1.2562893e-07 
3.3985948e-06 3.5296580e-06 -4.9477322e-08 
3.3992726e-06 4.7439125e-06 -1.4297464e-07 
4.1564317e-06 4.1876738e-06 -2.1370777e-08 
2.7536250e-06 3.2735470e-06 -9.5153439e-08 
6.3703210e-06 8.3497098e-06 -1.1986555e-07 
4.6437076e-06 6.0758025e-06 -1.1965351e-07 
5.2079477e-06 5.7355069e-06 -3.1197935e-08 
3.4436198e-06 3.5279277e-06 -4.4397165e-08 
2.9524410e-06 3.9400175e-06 -1.2536825e-07 
3.8828307e-06 5.3600961e-06 -1.4105754e-07 
4.6516298e-06 4.8212760e-06 -1.8939131e-08 
2.6993453e-06 3.1994350e-06 -9.4605120e-08 
3.3314232e-06 4.6683840e-06 -1.4360340e-07 
4.0988111e-06 4.1035810e-06 -2.1617797e-08 
4.4832509e-06 5.9155268e-06 -1.2308506e-07 
5.4519078e-06 6.9416164e-06 -1.0357930e-07 
5.0890440e-06 5.5397463e-06 -2.9085500e-08 
5.7559441e-06 6.8261370e-06 -5.9870480e-08 
2.8960690e-06 3.8728167e-06 -1.2590469e-07 
3.2945586e-06 3.3839385e-06 -4.9302855e-08 
6.3112070e-06 8.2728529e-06 -1.1977417e-07 
3.8251842e-06 5.2941277e-06 -1.4143492e-07 
4.6035452e-06 4.7501499e-06 -1.9441339e-08 
2.6452037e-06 3.1268928e-06 -9.4441113e-08 
3.2631394e-06 4.5924130e-06 -1.4363142e-07 
4.0413001e-06 4.0197719e-06 -2.2258448e-08 
2.8409459e-06 3.8065014e-06 -1.2581614e-07 
3.2428782e-06 3.3123256e-06 -5.0086751e-08 
4.5573070e-06 5.9641638e-06 -1.1911141e-07 
5.1288002e-06 5.6258891e-06 -3.1513753e-08 
2.5909237e-06 3.0556109e-06 -9.4376908e-08 
3.7677651e-06 5.2283544e-06 -1.4122391e-07 
4.5554730e-06 4.6789037e-06 -1.9505118e-08 
6.2527338e-06 8.1956550e-06 -1.1913351e-07 
3.1948136e-06 4.5167408e-06 -1.4329089e-07 
2.7859130e-06 3.7414670e-06 -1.2531413e-07 
3.1916525e-06 3.2410135e-06 -4.9819100e-08 
3.9843248e-06 3.9356109e-06 -2.2305709e-08 
5.3929339e-06 6.8622421e-06 -1.0298734e-07 
4.3939754e-06 5.8000264e-06 -1.2283103e-07 
5.6938193e-06 6.7590922e-06 -6.1388192e-08 
5.0083308e-06 5.4252146e-06 -2.9274343e-08 
2.5383467e-06 2.9833077e-06 -9.4097643e-08 
3.7111224e-06 5.1630873e-06 -1.4135176e-07 
4.5071674e-06 4.6077284e-06 -1.9747834e-08 
2.7317524e-06 3.6759595e-06 -1.2559599e-07 
3.1416073e-06 3.1705642e-06 -5.0463367e-08 
3.1272241e-06 4.4403760e-06 -1.4409774e-07 
3.9268280e-06 3.8521598e-06 -2.2920394e-08 
6.1952614e-06 8.1191884e-06 -1.1896219e-07 
2.4853534e-06 2.9136672e-06 -9.3936968e-08 
4.4739572e-06 5.8536484e-06 -1.1825892e-07 
5.0508365e-06 5.5176979e-06 -3.2831835e-08 
2.6779305e-06 3.6118145e-06 -1.2579011e-07 
3.0918266e-06 3.1011307e-06 -5.0391527e-08 
3.6545171e-06 5.0964882e-06 -1.4125133e-07 
4.4598733e-06 4.5375832e-06 -2.0269434e-08 
2.4342646e-06 2.8431346e-06 -9.3788984e-08 
3.0595859e-06 4.3644127e-06 -1.4324966e-07 
3.8691005e-06 3.7677439e-06 -2.3220325e-08 
5.3381896e-06 6.7867463e-06 -1.0263494e-07 
5.6346767e-06 6.6964863e-06 -6.2736198e-08 
4.4337457e-06 5.7986354e-06 -1.1722528e-07 
6.1405162e-06 8.0455256e-06 -1.1861531e-07 
2.6260152e-06 3.5484225e-06 -1.2554069e-07 
3.0432404e-06 3.0329547e-06 -5.1550337e-08 
5.0121903e-06 5.4658108e-06 -3.2782566e-08 
3.5992598e-06 5.0317694e-06 -1.4055502e-07 
4.4124527e-06 4.4671356e-06 -2.1120867e-08 
2.3826499e-06 2.7754979e-06 -9.3581718e-08 
2.9914559e-06 4.2876723e-06 -1.4305283e-07 
3.8132007e-06 3.6843787e-06 -2.4256055e-08 
2.5741731e-06 3.4873719e-06 -1.2479651e-07 
2.9949604e-06 2.9656383e-06 -5.1316306e-08 
4.3949813e-06 5.7446864e-06 -1.1650958e-07 
3.4867344e-06 3.8042001e-06 -6.3651868e-08 
4.9752034e-06 5.4151765e-06 -3.4178665e-08 
2.3325458e-06 2.7067879e-06 -9.3029989e-08 
6.0860293e-06 7.9702013e-06 -1.1804555e-07 
5.2182158e-06 6.6306593e-06 -1.0249572e-07 
3.5449618e-06 4.9671362e-06 -1.3920628e-07 
5.5129931e-06 6.4882115e-06 -5.9907919e-08 
4.3664731e-06 4.3995328e-06 -2.1839021e-08 
2.5226216e-06 3.4251832e-06 -1.2365663e-07 
2.9470839e-06 2.8986665e-06 -5.1743228e-08 
2.9267235e-06 4.2137908e-06 -1.4163369e-07 
3.7566135e-06 3.6028639e-06 -2.5999793e-08 
2.2828856e-06 2.6412758e-06 -9.2811085e-08 
4.3582763e-06 5.6928184e-06 -1.1643362e-07 
4.9392147e-06 5.3658900e-06 -3.4714478e-08 
3.4923348e-06 4.9042856e-06 -1.3884664e-07 
2.4735750e-06 3.3657175e-06 -1.2293010e-07 
2.9018868e-06 2.8345203e-06 -5.2249071e-08 
4.3207642e-06 4.3323084e-06 -2.2060577e-08 
6.0317766e-06 7.8981511e-06 -1.1844444e-07 
2.8607508e-06 4.1397029e-06 -1.4142539e-07 
2.2351094e-06 2.5769018e-06 -9.2327291e-08 
5.6127842e-06 6.7413939e-06 -7.1401395e-08 
5.4186139e-06 6.8804579e-06 -1.0216457e-07 
3.7011484e-06 3.5215166e-06 -2.6437919e-08 
4.3231253e-06 5.6427393e-06 -1.1504406e-07 
4.9041128e-06 5.3184253e-06 -3.6114148e-08 
2.4251433e-06 3.3073477e-06 -1.2254785e-07 
2.8568720e-06 2.7716494e-06 -5.2789268e-08 
3.4406091e-06 4.8418642e-06 -1.3837908e-07 
4.2770635e-06 4.2665870e-06 -2.2991902e-08 
2.1876781e-06 2.5136228e-06 -9.1739366e-08 
5.9810022e-06 7.8264693e-06 -1.1697747e-07 
2.7954684e-06 4.0658360e-06 -1.4112511e-07 
3.6467027e-06 3.4407767e-06 -2.7201663e-08 
2.3764333e-06 3.2496278e-06 -1.2209769e-07 
2.8113441e-06 2.7092588e-06 -5.3246772e-08 
5.5655119e-06 6.6754083e-06 -7.1736864e-08 
5.3720551e-06 6.8160762e-06 -1.0167766e-07 
4.2825036e-06 5.5870287e-06 -1.1371811e-07 
4.8619663e-06 5.2585233e-06 -3.7104993e-08 
3.1117393e-06 3.5368407e-06 -7.8984350e-08 
2.1419971e-06 2.4510691e-06 -9.1266358e-08 
3.3786107e-06 4.7697349e-06 -1.3767655e-07 
4.2193478e-06 4.1804760e-06 -2.4854314e-08 
2.3259981e-06 3.1816237e-06 -1.2063590e-07 
2.7595847e-06 2.6436464e-06 -5.4884868e-08 
2.7342162e-06 3.9946408e-06 -1.3911669e-07 
5.9335562e-06 7.7591430e-06 -1.1525889e-07 
3.5937471e-06 3.3645586e-06 -2.9107257e-08 
2.0975428e-06 2.3938312e-06 -9.1250669e-08 
4.2005408e-06 5.4925304e-06 -1.1386849e-07 
4.7916428e-06 5.1440766e-06 -3.6704435e-08 
5.5236624e-06 6.6179568e-06 -7.1295368e-08 
5.3313897e-06 6.7589226e-06 -1.0032405e-07 
3.0390386e-06 3.4434347e-06 -7.9465508e-08 
2.2787387e-06 3.1181594e-06 -1.1865855e-07 
3.3028664e-06 4.6838841e-06 -1.3631274e-07 
2.7101817e-06 2.5808395e-06 -5.5419715e-08 
4.1578896e-06 4.0879681e-06 -2.6129687e-08 
2.0566822e-06 2.3368045e-06 -9.0423448e-08 
2.6777850e-06 3.9287656e-06 -1.3785959e-07 
3.5441674e-06 3.2938128e-06 -3.0610185e-08 
5.8881351e-06 7.6928864e-06 -1.1395197e-07 
4.1072140e-06 5.3908602e-06 -1.1484003e-07 
4.7225731e-06 5.0310027e-06 -3.7078564e-08 
2.2316192e-06 3.0554697e-06 -1.1849095e-07 
2.6621281e-06 2.5205795e-06 -5.6401703e-08 
5.0227904e-06 6.3609396e-06 -1.0019200e-07 
5.3120125e-06 6.2035333e-06 -6.1726311e-08 
3.2319722e-06 4.6032665e-06 -1.3555255e-07 
4.0998498e-06 3.9996480e-06 -2.6818078e-08 
2.9625151e-06 3.3415308e-06 -7.8954940e-08 
2.0165264e-06 2.2833788e-06 -9.0490609e-08 
3.4977688e-06 3.2257396e-06 -3.1221852e-08 
2.6233242e-06 3.8648241e-06 -1.3646120e-07 
2.1880892e-06 2.9953621e-06 -1.1788347e-07 
2.6158552e-06 2.4629135e-06 -5.7004623e-08 
4.6565087e-06 4.9225114e-06 -3.6750496e-08 
4.0188011e-06 5.2942096e-06 -1.1607396e-07 
5.8454361e-06 7.6317228e-06 -1.1352617e-07 
1.9762206e-06 2.2312422e-06 -9.0511790e-08 
4.0439613e-06 3.9161341e-06 -2.7258002e-08 
3.1641302e-06 4.5273187e-06 -1.3507560e-07 
5.2590044e-06 6.6565153e-06 -1.0096893e-07 
5.2941832e-06 6.1956921e-06 -6.5305258e-08 
2.1441138e-06 2.9363580e-06 -1.1628042e-07 
2.5435977e-06 2.3855237e-06 -5.7935544e-08 
3.4553004e-06 3.1608390e-06 -3.1013844e-08 
2.5720437e-06 3.8075439e-06 -1.3616167e-07 
2.7462877e-06 3.1260045e-06 -8.2650033e-08 
1.9383669e-06 2.1784094e-06 -8.9353492e-08 
4.5922707e-06 4.8193328e-06 -3.8100630e-08 
4.2337069e-06 5.4727670e-06 -1.1003247e-07 
3.9906081e-06 3.8375924e-06 -2.9523470e-08 
3.1007764e-06 4.4542535e-06 -1.3442549e-07 
2.1021362e-06 2.8787015e-06 -1.1472334e-07 
5.8080641e-06 7.5771527e-06 -1.1303043e-07 
2.5265660e-06 2.3492755e-06 -5.7717497e-08 
3.0799627e-06 3.4058780e-06 -7.3895826e-08 
5.2572163e-06 6.1402366e-06 -6.4083260e-08 
1.9018655e-06 2.1298799e-06 -8.9060428e-08 
3.4119291e-06 3.1011416e-06 -3.3712613e-08 
2.5238119e-06 3.7499499e-06 -1.3418237e-07 
5.2257756e-06 6.6077414e-06 -9.9624884e-08 
4.5315710e-06 4.7209460e-06 -3.7499237e-08 
3.8548437e-06 5.1134316e-06 -1.1526969e-07 
2.0622840e-06 2.8243237e-06 -1.1437322e-07 
2.4856113e-06 2.2971324e-06 -5.8738813e-08 
3.9411329e-06 3.7631460e-06 -3.0009566e-08 
3.0410717e-06 4.3847626e-06 -1.3266668e-07 
2.7931903e-06 2.9807993e-06 -7.2017770e-08 
1.8670233e-06 2.0833138e-06 -8.9190458e-08 
5.7732796e-06 7.5259422e-06 -1.1427140e-07 
3.3735155e-06 3.0432643e-06 -3.3991441e-08 
2.4781973e-06 3.6970648e-06 -1.3266192e-07 
5.1000466e-06 5.8264909e-06 -5.8278705e-08 
4.7069898e-06 5.9538520e-06 -1.0080855e-07 
2.0241489e-06 2.7713791e-06 -1.1349055e-07 
4.4748313e-06 4.6277601e-06 -3.7399445e-08 
2.5960696e-06 2.3522969e-06 -5.3702955e-08 
3.7804875e-06 5.0323506e-06 -1.1577499e-07 
1.8326919e-06 2.0377017e-06 -8.9053565e-08 
3.8941325e-06 3.6920044e-06 -3.0685115e-08 
2.9841044e-06 4.3206473e-06 -1.3099178e-07 
2.4063702e-06 2.1976971e-06 -6.0243131e-08 
1.9561942e-06 2.6381122e-06 -1.1094788e-07 
3.3378442e-06 2.9896785e-06 -3.5455486e-08 
2.4355920e-06 3.6469598e-06 -1.3170796e-07 
5.7420179e-06 7.4758095e-06 -1.1379337e-07 
2.6280507e-06 3.0669853e-06 -8.7734215e-08 
4.4213343e-06 4.5397628e-06 -3.7959357e-08 
3.7081093e-06 4.9536761e-06 -1.1593929e-07 
1.7998714e-06 1.9961365e-06 -8.9247330e-08 
3.8485068e-06 3.6264926e-06 -3.2368305e-08 
5.1705238e-06 6.5201530e-06 -1.0047157e-07 
5.3562976e-06 6.3811162e-06 -7.4389405e-08 
2.5358556e-06 2.2732290e-06 -5.6000740e-08 
2.9302364e-06 4.2580268e-06 -1.2905188e-07 
1.9949912e-06 2.7818378e-06 -1.1416532e-07 
4.8468646e-06 5.3318854e-06 -5.0501502e-08 
4.3967302e-06 5.5911860e-06 -1.0266790e-07 
3.3020196e-06 2.9400426e-06 -3.7685776e-08 
2.3984985e-06 3.5992907e-06 -1.2886082e-07 
1.7698421e-06 1.9560152e-06 -8.8376900e-08 
4.3698578e-06 4.4561771e-06 -3.7515711e-08 
3.6411716e-06 4.8813413e-06 -1.1544184e-07 
5.7069560e-06 7.4185455e-06 -1.1301179e-07 
2.5676766e-06 2.2792365e-06 -5.3982575e-08 
1.9646629e-06 2.7492358e-06 -1.1299391e-07 
3.8068385e-06 3.5627413e-06 -3.3309611e-08 
2.8810196e-06 4.2000347e-06 -1.2856154e-07 
1.7414612e-06 1.9160370e-06 -8.8077378e-08 
5.1432476e-06 6.4762071e-06 -1.0000700e-07 
5.3269259e-06 6.3383686e-06 -7.5174611e-08 
3.2700905e-06 2.8913046e-06 -3.7824947e-08 
2.3628954e-06 3.5569149e-06 -1.2793457e-07 
4.3204482e-06 4.3752516e-06 -3.8166572e-08 
1.9227105e-06 2.6812829e-06 -1.1211808e-07 
3.4527761e-06 4.7047570e-06 -1.1860354e-07 
4.7790377e-06 5.2173600e-06 -5.0901090e-08 
2.5267459e-06 2.2251459e-06 -5.5569512e-08 
3.7660329e-06 3.5029684e-06 -3.5055123e-08 
2.8355987e-06 4.1442981e-06 -1.2747276e-07 
1.7124765e-06 1.8785194e-06 -8.7596682e-08 
5.6776585e-06 7.3668534e-06 -1.1133222e-07 
2.4901067e-06 2.8643051e-06 -8.6426432e-08 
3.2399566e-06 2.8478189e-06 -3.8235719e-08 
4.3905998e-06 5.5569712e-06 -1.0097632e-07 
1.8354789e-06 2.4771091e-06 -1.0637154e-07 
2.3287921e-06 3.5136356e-06 -1.2676418e-07 
2.2671140e-06 2.0258649e-06 -6.2505762e-08 
4.2736992e-06 4.2994611e-06 -3.8327236e-08 
5.1207494e-06 6.4371243e-06 -9.7936720e-08 
5.3029930e-06 6.3003463e-06 -7.3584289e-08 
3.5168578e-06 4.7432191e-06 -1.1574631e-07 
2.6713096e-06 2.3262282e-06 -5.2117020e-08 
1.6854101e-06 1.8435903e-06 -8.7321240e-08 
3.7288391e-06 3.4474187e-06 -3.5539969e-08 
2.7913727e-06 4.0918972e-06 -1.2608518e-07 
2.2192517e-06 1.9795100e-06 -6.3622359e-08 
1.8278620e-06 2.4953479e-06 -1.0651274e-07 
3.2118553e-06 2.8049692e-06 -3.9410981e-08 
2.2971135e-06 3.4760662e-06 -1.2428809e-07 
5.6508147e-06 7.3213705e-06 -1.1052382e-07 
4.2285328e-06 4.2268962e-06 -3.8836209e-08 
1.6605668e-06 1.8093626e-06 -8.7019046e-08 
3.3414963e-06 4.5786337e-06 -1.1759027e-07 
2.4925946e-06 2.1613619e-06 -5.5631666e-08 
4.7706008e-06 5.2169580e-06 -5.2904763e-08 
3.6921138e-06 3.3934855e-06 -3.6412757e-08 
2.9956291e-06 3.2081616e-06 -7.1363552e-08 
1.8597347e-06 2.6139442e-06 -1.0967889e-07 
5.1022039e-06 6.4027645e-06 -9.9153034e-08 
2.7507867e-06 4.0420282e-06 -1.2539785e-07 
5.2830337e-06 6.2672520e-06 -7.5269412e-08 
3.1844086e-06 2.7672506e-06 -4.2156437e-08 
4.2516726e-06 5.3859358e-06 -1.0083704e-07 