# vtk DataFile Version 4.0
vtk output
ASCII
DATASET UNSTRUCTURED_GRID
POINTS 4496 float
-4.3633327e-01 9.6409470e-01 4.4200001e+01 
-4.3633258e-01 9.6409065e-01 4.4074627e+01 
-3.2152572e-01 9.1279918e-01 4.4200001e+01 
-3.8534868e-01 8.4052670e-01 4.4200001e+01 
-3.9589554e-01 8.5545403e-01 4.4010014e+01 
-3.2616228e-01 9.1667932e-01 4.4011734e+01 
-4.3633190e-01 9.6408653e-01 4.3948376e+01 
-2.1293370e-01 8.4677851e-01 4.4200001e+01 
-2.9042658e-01 7.3813015e-01 4.4200001e+01 
-2.1010752e-01 8.4669363e-01 4.4073502e+01 
-2.8908840e-01 7.3604190e-01 4.4072292e+01 
-3.9589015e-01 8.5505831e-01 4.3883316e+01 
-3.2487559e-01 9.1697580e-01 4.3885036e+01 
-2.0722924e-01 8.4660655e-01 4.3944645e+01 
-1.1981077e-01 7.7773046e-01 4.4200001e+01 
-2.8772619e-01 7.3391593e-01 4.3942276e+01 
-4.3633121e-01 9.6408242e-01 4.3821228e+01 
-1.9739023e-01 6.6468561e-01 4.4200001e+01 
-2.9444304e-01 7.8727525e-01 4.3879974e+01 
-8.7554991e-02 7.5255024e-01 4.4042213e+01 
-1.6445170e-01 6.4084798e-01 4.4041008e+01 
-3.2357255e-01 9.1726828e-01 4.3757431e+01 
-3.9587301e-01 8.5463828e-01 4.3755711e+01 
-2.0429766e-01 8.4651643e-01 4.3813354e+01 
-2.8633916e-01 7.3175091e-01 4.3809875e+01 
-2.6899619e-02 6.8901783e-01 4.4200001e+01 
-1.0567340e-01 7.7152997e-01 4.3875790e+01 
-4.3633053e-01 9.6407831e-01 4.3693161e+01 
-8.7133333e-02 5.9509218e-01 4.4200001e+01 
-1.8777622e-01 6.5475601e-01 4.3873402e+01 
-2.0131156e-01 8.4642249e-01 4.3679543e+01 
-3.2225290e-01 9.1755641e-01 4.3628902e+01 
-3.9584404e-01 8.5419410e-01 4.3627178e+01 
-1.0114321e-03 6.6670936e-01 4.3939713e+01 
-2.8492665e-01 7.2954547e-01 4.3675007e+01 
-1.0131179e-01 7.7015632e-01 4.3743176e+01 
-6.0682178e-02 5.7631296e-01 4.3938457e+01 
3.9444737e-02 6.2338209e-01 4.4053139e+01 
-1.8470748e-01 6.5131217e-01 4.3739727e+01 
-7.0938184e-03 5.4737431e-01 4.4052326e+01 
-4.3632981e-01 9.6407413e-01 4.3564159e+01 
7.6947339e-02 5.8804804e-01 4.4200001e+01 
-1.2721874e-02 6.8194175e-01 4.3817982e+01 
-7.7214435e-02 5.8474159e-01 4.3819649e+01 
4.0195532e-02 5.2425718e-01 4.4200001e+01 
-1.9826968e-01 8.4632379e-01 4.3543118e+01 
-9.6842363e-02 7.6872379e-01 4.3607994e+01 
-3.2091641e-01 9.1783977e-01 4.3499420e+01 
-3.9580306e-01 8.5372573e-01 4.3497700e+01 
-2.8348783e-01 7.2729832e-01 4.3537586e+01 
-1.8155001e-01 6.4778340e-01 4.3603539e+01 
1.5678726e-01 5.2239102e-01 4.4060219e+01 
1.0298219e-02 6.6009766e-01 4.3674484e+01 
1.3250886e-01 4.7546524e-01 4.4058990e+01 
-4.3632913e-01 9.6407002e-01 4.3434200e+01 
-5.0139543e-02 5.6696451e-01 4.3671154e+01 
1.3504514e-01 5.4209155e-01 4.3856747e+01 
1.0361936e-01 4.8715758e-01 4.3855240e+01 
2.0846681e-01 4.8028421e-01 4.4200001e+01 
1.9279444e-01 4.4799727e-01 4.4200001e+01 
-9.2261828e-02 7.6722860e-01 4.3470158e+01 
-1.4701239e-03 6.7547697e-01 4.3552124e+01 
-1.9517080e-01 8.4621930e-01 4.3403992e+01 
-3.1956279e-01 9.1811794e-01 4.3368977e+01 
-3.9574999e-01 8.5323322e-01 4.3367252e+01 
-1.7830023e-01 6.4416617e-01 4.3464752e+01 
-6.7131944e-02 5.7555372e-01 4.3547829e+01 
-2.8202194e-01 7.2500783e-01 4.3397518e+01 
-4.3632844e-01 9.6406585e-01 4.3303261e+01 
1.5138821e-01 5.3037512e-01 4.3609200e+01 
1.2119007e-01 4.7490793e-01 4.3606068e+01 
-8.7566733e-02 7.6566672e-01 4.3329563e+01 
-1.7495437e-01 6.4045686e-01 4.3323273e+01 
-3.1819177e-01 9.1839045e-01 4.3237537e+01 
-3.9568463e-01 8.5271639e-01 4.3235813e+01 
2.2269404e-02 6.5294570e-01 4.3398811e+01 
-1.9201367e-01 8.4610778e-01 4.3262066e+01 
-3.8899176e-02 5.5709696e-01 4.3393635e+01 
-2.8052819e-01 7.2267252e-01 4.3254715e+01 
3.7877345e-01 3.8273901e-01 4.4200001e+01 
-4.3632776e-01 9.6406174e-01 4.3171322e+01 
3.9241230e-01 3.7329337e-01 4.3965439e+01 
1.0283732e-02 6.6872352e-01 4.3271511e+01 
-5.6385640e-02 5.6585240e-01 4.3265472e+01 
-8.2753494e-02 7.6403379e-01 4.3186119e+01 
-4.0345609e-01 8.6371827e-01 4.3104889e+01 
-3.1680310e-01 9.1865683e-01 4.3105087e+01 
-1.7150842e-01 6.3665158e-01 4.3179005e+01 
-1.8879703e-01 8.4598809e-01 4.3117241e+01 
-2.7900568e-01 7.2029078e-01 4.3109074e+01 
4.0610775e-01 3.6380205e-01 4.3729839e+01 
1.6776134e-01 5.1882964e-01 4.3331150e+01 
-4.3632707e-01 9.6405768e-01 4.3038357e+01 
1.4031014e-01 4.6124566e-01 4.3307755e+01 
3.4952711e-02 6.4519531e-01 4.3111935e+01 
-7.7818394e-02 7.6232505e-01 4.3039719e+01 
-3.1539652e-01 9.1891652e-01 4.2971603e+01 
-3.9551663e-01 8.5160977e-01 4.2969879e+01 
-2.6899155e-02 5.4666573e-01 4.3105160e+01 
-1.6795819e-01 6.3274628e-01 4.3031849e+01 
-1.8551964e-01 8.4585863e-01 4.2969406e+01 
4.1985780e-01 3.5425979e-01 4.3493168e+01 
-2.7745360e-01 7.1786088e-01 4.2960495e+01 
-4.3632638e-01 9.6405357e-01 4.2904346e+01 
2.2723136e-02 6.6139150e-01 4.2979332e+01 
-4.4916678e-02 5.5559248e-01 4.2971806e+01 
-3.1397179e-01 9.1916907e-01 4.2837063e+01 
-3.9541367e-01 8.5101974e-01 4.2835335e+01 
-7.2757579e-02 7.6053542e-01 4.2890255e+01 
-1.6429928e-01 6.2873662e-01 4.2881699e+01 
1.8463810e-01 5.0694346e-01 4.3035332e+01 
-1.8218029e-01 8.4571803e-01 4.2818455e+01 
1.5503895e-01 4.5003417e-01 4.3027725e+01 
-2.7587104e-01 7.1538109e-01 4.2808868e+01 
4.3366045e-01 3.4466109e-01 4.3255390e+01 
-4.3632573e-01 9.6404958e-01 4.2769268e+01 
-3.8429454e-01 8.3484912e-01 4.2710606e+01 
-3.1252861e-01 9.1941386e-01 4.2701439e+01 
4.8404284e-02 6.3678014e-01 4.2813030e+01 
-1.4070326e-02 5.3562075e-01 4.2804932e+01 
-6.7567028e-02 7.5865942e-01 4.2737610e+01 
-1.6052702e-01 6.2461799e-01 4.2728443e+01 
-1.7877772e-01 8.4556442e-01 4.2664265e+01 
-4.3632504e-01 9.6404558e-01 4.2633099e+01 
-2.7425703e-01 7.1284944e-01 4.2654083e+01 
4.4751364e-01 3.3500037e-01 4.3016472e+01 
3.5901129e-02 6.5341437e-01 4.2674721e+01 
-3.7959340e-01 8.2794034e-01 4.2568317e+01 
-3.1106678e-01 9.1965032e-01 4.2564713e+01 
-3.2659348e-02 5.4472327e-01 4.2665997e+01 
2.0396979e-01 4.9291667e-01 4.2740131e+01 
-6.2242586e-02 7.5669110e-01 4.2581669e+01 
1.7765003e-01 4.3475360e-01 4.2732578e+01 
-1.5663649e-01 6.2038553e-01 4.2571964e+01 
-4.3632439e-01 9.6404165e-01 4.2495808e+01 
-1.7531081e-01 8.4539592e-01 4.2506718e+01 
-2.7261066e-01 7.1026409e-01 4.2496017e+01 
-3.0958602e-01 9.1987789e-01 4.2426853e+01 
-3.7859210e-01 8.2613736e-01 4.2421188e+01 
4.6141517e-01 3.2527190e-01 4.2776375e+01 
6.2686495e-02 6.2762415e-01 4.2501175e+01 
-3.3570320e-04 5.2390522e-01 4.2492062e+01 
-5.6779940e-02 7.5462401e-01 4.2422298e+01 
-4.3632373e-01 9.6403772e-01 4.2357380e+01 
-1.5262254e-01 6.1603409e-01 4.2412144e+01 
-1.7177837e-01 8.4521037e-01 4.2345684e+01 
-2.7093092e-01 7.0762289e-01 4.2334549e+01 
-3.0808610e-01 9.2009580e-01 4.2287842e+01 
-3.8275370e-01 8.3137155e-01 4.2275047e+01 
4.9876589e-02 6.4471585e-01 4.2356720e+01 
-1.9539909e-02 5.3318781e-01 4.2347118e+01 
-4.3632311e-01 9.6403396e-01 4.2217781e+01 
2.1959943e-01 4.8236796e-01 4.2385345e+01 
-5.1174615e-02 7.5245124e-01 4.2259373e+01 
1.9034323e-01 4.2346162e-01 4.2378918e+01 
-1.4847966e-01 6.1155808e-01 4.2248856e+01 
4.7536272e-01 3.1546980e-01 4.2535065e+01 
-1.6817927e-01 8.4500539e-01 4.2181026e+01 
-2.6921678e-01 7.0492369e-01 4.2169544e+01 
-3.0656675e-01 9.2030340e-01 4.2147648e+01 
-3.9470181e-01 8.4769493e-01 4.2145920e+01 
7.7868804e-02 6.1763972e-01 4.2175373e+01 
-4.3632248e-01 9.6403021e-01 4.2076988e+01 
1.4390758e-02 5.1145434e-01 4.2165581e+01 
-4.5421973e-02 7.5016522e-01 4.2092751e+01 
-1.4420210e-01 6.0695171e-01 4.2081959e+01 
-3.0502778e-01 9.2049998e-01 4.2006248e+01 
-4.0175444e-01 8.5747409e-01 4.2004128e+01 
-1.6451253e-01 8.4477836e-01 4.2012604e+01 
4.8935395e-01 3.0558801e-01 4.2292507e+01 
-2.6746723e-01 7.0216429e-01 4.2000870e+01 
6.4714879e-02 6.3520777e-01 4.2024277e+01 
-4.3632188e-01 9.6402657e-01 4.1934975e+01 
-5.4755262e-03 5.2092212e-01 4.2014156e+01 
-2.3078828e-01 8.1064087e-01 4.1931458e+01 
2.3550548e-01 4.7116494e-01 4.2073269e+01 
2.0610523e-01 4.1123796e-01 4.2066772e+01 
-3.9517213e-02 7.4775779e-01 4.1922287e+01 
-1.3978374e-01 6.0220873e-01 4.1911320e+01 
-3.0346894e-01 9.2068475e-01 4.1863613e+01 
-3.9432141e-01 8.4618556e-01 4.1861881e+01 
-1.6077711e-01 8.4452641e-01 4.1840263e+01 
-2.6568118e-01 6.9934219e-01 4.1828377e+01 
-4.3632129e-01 9.6402299e-01 4.1791718e+01 
5.0338638e-01 2.9562023e-01 4.2048656e+01 
9.4028555e-02 6.0672593e-01 4.1834507e+01 
3.0205652e-02 4.9819478e-01 4.1824417e+01 
-3.8116732e-01 8.2744831e-01 4.1725647e+01 
-3.0189002e-01 9.2085695e-01 4.1719719e+01 
-3.3455357e-02 7.4522001e-01 4.1747829e+01 
-1.3521814e-01 5.9732240e-01 4.1736786e+01 
-4.3632072e-01 9.6401960e-01 4.1647179e+01 
-1.5697217e-01 8.4424627e-01 4.1663853e+01 
-2.6385748e-01 6.9645494e-01 4.1651920e+01 
8.0488607e-02 6.2478805e-01 4.1676235e+01 
2.6870471e-01 4.4547972e-01 4.1752304e+01 
9.6269641e-03 5.0785345e-01 4.1665993e+01 
2.4764967e-01 3.8646612e-01 4.1743168e+01 
-3.0029076e-01 9.2101562e-01 4.1574532e+01 
-3.9388368e-01 8.4456980e-01 4.1572796e+01 
5.1745731e-01 2.8556010e-01 4.1803486e+01 
-2.7231261e-02 7.4254233e-01 4.1569210e+01 
-1.3049847e-01 5.9228569e-01 4.1558201e+01 
-4.3632016e-01 9.6401632e-01 4.1501339e+01 
-1.5309690e-01 8.4393430e-01 4.1483204e+01 
-2.6199502e-01 6.9349992e-01 4.1471333e+01 
-2.9867104e-01 9.2115986e-01 4.1428024e+01 
-3.9364263e-01 8.4372103e-01 4.1426289e+01 
1.1125199e-01 5.9476525e-01 4.1477348e+01 
4.7217656e-02 4.8404291e-01 4.1467384e+01 
-4.3631962e-01 9.6401310e-01 4.1354160e+01 
-2.0839609e-02 7.3971421e-01 4.1386261e+01 
-1.2561750e-01 5.8709091e-01 4.1375404e+01 
5.3156406e-01 2.7540097e-01 4.1556946e+01 
-1.4915068e-01 8.4358656e-01 4.1298138e+01 
-2.9703063e-01 9.2128879e-01 4.1280167e+01 
-3.9338648e-01 8.4284443e-01 4.1278431e+01 
-2.6009262e-01 6.9047421e-01 4.1286449e+01 
2.9365057e-01 4.2687622e-01 4.1391586e+01 
9.7278498e-02 6.1333776e-01 4.1311302e+01 
2.7470219e-01 3.6807936e-01 4.1382729e+01 
2.5872495e-02 4.9389899e-01 4.1301384e+01 
-4.3631911e-01 9.6401012e-01 4.1205620e+01 
-1.4274905e-02 7.3672432e-01 4.1198803e+01 
-1.2056758e-01 5.8173001e-01 4.1188221e+01 
-2.9536936e-01 9.2140132e-01 4.1130928e+01 
[...]
POINT_DATA 4496
FIELD FieldData 5
DISPLACEMENT 3 4496  float
9.5340600e-03 9.8554622e-03 -1.1144997e-04 
9.4949938e-03 9.8055862e-03 -1.1143194e-04 
9.5478641e-03 9.8863728e-03 -1.2683669e-04 
9.5673334e-03 9.8692002e-03 -7.8194760e-05 
9.5041115e-03 9.7907810e-03 -8.0821272e-05 
9.4881551e-03 9.8102251e-03 -1.2690904e-04 
9.4556632e-03 9.7553730e-03 -1.1141278e-04 
9.5656384e-03 9.9156210e-03 -1.3443318e-04 
9.5949089e-03 9.8947687e-03 -6.7054978e-05 
9.5262369e-03 9.8660514e-03 -1.3526349e-04 
9.5556686e-03 9.8443171e-03 -6.6624358e-05 
9.4647445e-03 9.7403908e-03 -8.0648329e-05 
9.4486047e-03 9.7601749e-03 -1.2741129e-04 
9.4861081e-03 9.8155523e-03 -1.3610665e-04 
9.5842322e-03 9.9407081e-03 -1.3600594e-04 
9.5157186e-03 9.7929621e-03 -6.6190136e-05 
9.4160624e-03 9.7048143e-03 -1.1139194e-04 
9.6146911e-03 9.9198334e-03 -6.6845256e-05 
9.4819395e-03 9.7663645e-03 -8.5312626e-05 
9.5418328e-03 9.8866094e-03 -1.3602727e-04 
9.5715476e-03 9.8654358e-03 -6.7611611e-05 
9.4087897e-03 9.7097801e-03 -1.2790388e-04 
9.4251065e-03 9.6896589e-03 -8.0474914e-05 
9.4452286e-03 9.7641060e-03 -1.3696347e-04 
9.4750375e-03 9.7406711e-03 -6.5747401e-05 
9.6081290e-03 9.9657513e-03 -1.2969079e-04 
9.4848583e-03 9.8154945e-03 -1.3790057e-04 
9.3762064e-03 9.6539091e-03 -1.1136576e-04 
9.6334442e-03 9.9495426e-03 -7.3531541e-05 
9.5155519e-03 9.7924639e-03 -6.5853579e-05 
9.4035799e-03 9.7116809e-03 -1.3783063e-04 
9.3687037e-03 9.6590333e-03 -1.2840428e-04 
9.3852058e-03 9.6385879e-03 -8.0302038e-05 
9.5329955e-03 9.8691192e-03 -1.2885725e-04 
9.4336001e-03 9.6874181e-03 -6.5300730e-05 
9.4439071e-03 9.7638937e-03 -1.3869087e-04 
9.5569501e-03 9.8525677e-03 -7.4272051e-05 
9.5800236e-03 9.9251783e-03 -1.2425102e-04 
9.4748009e-03 9.7401077e-03 -6.5429085e-05 
9.6002566e-03 9.9123307e-03 -7.9479767e-05 
9.3360664e-03 9.6026734e-03 -1.1134105e-04 
9.6353404e-03 9.9937618e-03 -1.2190524e-04 
9.4909463e-03 9.8175015e-03 -1.3124909e-04 
9.5176306e-03 9.8008290e-03 -7.2457326e-05 
9.6525429e-03 9.9838674e-03 -8.5045693e-05 
9.3611311e-03 9.6582407e-03 -1.3870852e-04 
9.4021801e-03 9.7113028e-03 -1.3948727e-04 
9.3283439e-03 9.6079437e-03 -1.2889810e-04 
9.3450285e-03 9.5871631e-03 -8.0108824e-05 
9.3913963e-03 9.6331779e-03 -6.4847445e-05 
9.4332984e-03 9.6867839e-03 -6.4997948e-05 
9.6094413e-03 9.9596297e-03 -1.2066418e-04 
9.4520887e-03 9.7665647e-03 -1.2971948e-04 
9.6217077e-03 9.9526038e-03 -9.4399475e-05 
9.2956610e-03 9.5510632e-03 -1.1130745e-04 
9.4760964e-03 9.7490065e-03 -7.3812218e-05 
9.5406659e-03 9.8727215e-03 -1.2170124e-04 
9.5549868e-03 9.8636709e-03 -9.0013033e-05 
9.6644005e-03 1.0029252e-02 -1.2004316e-04 
9.6731083e-03 1.0025031e-02 -1.0228729e-04 
9.3596568e-03 9.6576931e-03 -1.4029420e-04 
9.4098253e-03 9.7146956e-03 -1.3214287e-04 
9.3178665e-03 9.6037686e-03 -1.3959945e-04 
9.2876982e-03 9.5564900e-03 -1.2940000e-04 
9.3045775e-03 9.5353900e-03 -7.9921709e-05 
9.3910154e-03 9.6324719e-03 -6.4570813e-05 
9.4353277e-03 9.6953660e-03 -7.1930051e-05 
9.3483832e-03 9.5779151e-03 -6.4392123e-05 
9.2549650e-03 9.4991103e-03 -1.1127827e-04 
9.4665941e-03 9.7784866e-03 -1.2210845e-04 
9.4805220e-03 9.7691379e-03 -9.0587091e-05 
9.3163112e-03 9.6030422e-03 -1.4109696e-04 
9.3479222e-03 9.5771290e-03 -6.4133506e-05 
9.2467805e-03 9.5046917e-03 -1.2989118e-04 
9.2638526e-03 9.4832629e-03 -7.9731639e-05 
9.3680983e-03 9.6600447e-03 -1.3056032e-04 
9.2737554e-03 9.5482171e-03 -1.4049490e-04 
9.3922019e-03 9.6415896e-03 -7.3373260e-05 
9.3045477e-03 9.5216027e-03 -6.3929961e-05 
9.6907020e-03 1.0075188e-02 -1.3434084e-04 
9.2139859e-03 9.4467867e-03 -1.1125027e-04 
9.6200323e-03 9.9853547e-03 -1.3480423e-04 
9.3242209e-03 9.6061816e-03 -1.3306641e-04 
9.3498975e-03 9.5859347e-03 -7.1412142e-05 
9.2721218e-03 9.5473062e-03 -1.4190828e-04 
9.2202034e-03 9.4292602e-03 -8.1677164e-05 
9.2055518e-03 9.4525032e-03 -1.3039522e-04 
9.3040140e-03 9.5207440e-03 -6.3699881e-05 
9.2287771e-03 9.4915750e-03 -1.4139932e-04 
9.2598815e-03 9.4642248e-03 -6.3450381e-05 
9.5490161e-03 9.8950751e-03 -1.3526627e-04 
9.3829567e-03 9.6721128e-03 -1.2259003e-04 
9.1727087e-03 9.3941139e-03 -1.1122065e-04 
9.3910871e-03 9.6554523e-03 -9.1091497e-05 
9.2808278e-03 9.5493058e-03 -1.3137635e-04 
9.2270589e-03 9.4904639e-03 -1.4271548e-04 
9.1640716e-03 9.3999719e-03 -1.3087687e-04 
9.1815181e-03 9.3778949e-03 -7.9323763e-05 
9.3050692e-03 9.5300833e-03 -7.2958173e-05 
9.2592351e-03 9.4632665e-03 -6.3255437e-05 
9.1829002e-03 9.4337827e-03 -1.4230597e-04 
9.4776480e-03 9.8042898e-03 -1.3572731e-04 
9.2143193e-03 9.4057219e-03 -6.2978870e-05 
9.1311773e-03 9.3410499e-03 -1.1117260e-04 
9.2352405e-03 9.4933258e-03 -1.3396096e-04 
9.2611359e-03 9.4722994e-03 -7.0917398e-05 
9.1222851e-03 9.3470635e-03 -1.3137879e-04 
9.1399364e-03 9.3246792e-03 -7.9124540e-05 
9.1810962e-03 9.4324676e-03 -1.4352830e-04 
9.2135929e-03 9.4046881e-03 -6.2822604e-05 
9.2938980e-03 9.5588174e-03 -1.2309480e-04 
9.1360919e-03 9.3748104e-03 -1.4321657e-04 
9.3067223e-03 9.5479013e-03 -9.1215043e-05 
9.1678789e-03 9.3461061e-03 -6.2509062e-05 
9.4059426e-03 9.7130872e-03 -1.3621795e-04 
9.0893218e-03 9.2876665e-03 -1.1112788e-04 
9.1055613e-03 9.2783384e-03 -7.6155833e-05 
9.0802172e-03 9.2938170e-03 -1.3184721e-04 
9.1900732e-03 9.4341030e-03 -1.3215865e-04 
9.2144962e-03 9.4142621e-03 -7.2587063e-05 
9.1341930e-03 9.3733054e-03 -1.4433835e-04 
9.1670239e-03 9.3449596e-03 -6.2373081e-05 
9.0883533e-03 9.3146758e-03 -1.4412953e-04 
9.0471944e-03 9.2339041e-03 -1.1106968e-04 
9.1204913e-03 9.2852740e-03 -6.2023995e-05 
9.3338769e-03 9.6214106e-03 -1.3668250e-04 
9.1426708e-03 9.3758879e-03 -1.3481877e-04 
9.0633314e-03 9.2234034e-03 -7.4851450e-05 
9.0378607e-03 9.2401812e-03 -1.3229679e-04 
9.1688316e-03 9.3542328e-03 -7.0457078e-05 
9.2056468e-03 9.4465110e-03 -1.2352031e-04 
9.0863677e-03 9.3129333e-03 -1.4515831e-04 
9.2187505e-03 9.4365263e-03 -9.2201699e-05 
9.1195395e-03 9.2840623e-03 -6.1967898e-05 
9.0047875e-03 9.1797579e-03 -1.1098535e-04 
9.0396125e-03 9.2532951e-03 -1.4506321e-04 
9.0721482e-03 9.2232805e-03 -6.1544568e-05 
8.9951800e-03 9.1861868e-03 -1.3277467e-04 
9.0182843e-03 9.1656866e-03 -7.4451120e-05 
9.2615234e-03 9.5294043e-03 -1.3713975e-04 
9.0956241e-03 9.3141822e-03 -1.3288560e-04 
9.1202781e-03 9.2938840e-03 -7.2252675e-05 
9.0375459e-03 9.2513273e-03 -1.4593708e-04 
8.9620566e-03 9.1252830e-03 -1.1092023e-04 
9.0710763e-03 9.2219561e-03 -6.1533712e-05 
8.9898752e-03 9.1906469e-03 -1.4597613e-04 
9.0228245e-03 9.1600576e-03 -6.1058679e-05 
8.9522302e-03 9.1318414e-03 -1.3323102e-04 
8.9717461e-03 9.1070998e-03 -7.5232056e-05 
9.0463040e-03 9.2535848e-03 -1.3561323e-04 
9.0728132e-03 9.2314938e-03 -7.0022987e-05 
8.9190472e-03 9.0704635e-03 -1.1084507e-04 
9.0980604e-03 9.3097705e-03 -1.2418095e-04 
8.9877211e-03 9.1884583e-03 -1.4671027e-04 
9.1116289e-03 9.2995083e-03 -9.1737129e-05 
9.0216324e-03 9.1586439e-03 -6.1107574e-05 
9.1888262e-03 9.4369361e-03 -1.3757794e-04 
8.9390986e-03 9.1267023e-03 -1.4689111e-04 
8.9724753e-03 9.0955663e-03 -6.0570954e-05 
8.9090066e-03 9.0771662e-03 -1.3366676e-04 
8.9276293e-03 9.0532722e-03 -7.7962715e-05 
8.9972829e-03 9.1893207e-03 -1.3355519e-04 
8.8757370e-03 9.0152565e-03 -1.1077647e-04 
9.0222247e-03 9.1687441e-03 -7.2004405e-05 
8.9368615e-03 9.1242902e-03 -1.4747909e-04 
8.9712068e-03 9.0940641e-03 -6.0663617e-05 
8.8654077e-03 9.0220468e-03 -1.3414781e-04 
8.8813379e-03 8.9958096e-03 -7.9626887e-05 
8.8872509e-03 9.0614259e-03 -1.4780463e-04 
9.1158189e-03 9.3440795e-03 -1.3802358e-04 
8.9211361e-03 9.0298234e-03 -6.0051476e-05 
8.9459512e-03 9.1262581e-03 -1.3633784e-04 
8.8320412e-03 8.9596491e-03 -1.1071753e-04 
8.9728516e-03 9.1038886e-03 -6.9661015e-05 
8.8712536e-03 9.0122120e-03 -1.1390402e-04 
9.0041608e-03 9.1904355e-03 -1.2467885e-04 
9.0178913e-03 9.1801649e-03 -9.1893620e-05 
8.8849450e-03 9.0588089e-03 -1.4824749e-04 
8.9197261e-03 9.0282122e-03 -6.0218998e-05 
8.8214856e-03 8.9665381e-03 -1.3459873e-04 
8.8404873e-03 8.9420415e-03 -7.7483819e-05 
8.8342931e-03 8.9948187e-03 -1.4872802e-04 
8.8687278e-03 8.9626908e-03 -5.9529146e-05 
8.7880576e-03 8.9036394e-03 -1.1062110e-04 
9.0425704e-03 9.2509817e-03 -1.3847905e-04 
8.8948132e-03 9.0592606e-03 -1.3415961e-04 
8.9201024e-03 9.0385955e-03 -7.1818511e-05 
8.8035678e-03 8.8922577e-03 -7.4137002e-05 
8.7773111e-03 8.9107035e-03 -1.3500662e-04 
8.8318922e-03 8.9918999e-03 -1.4900832e-04 
8.8671409e-03 8.9609772e-03 -5.9765753e-05 
8.7437946e-03 8.8472478e-03 -1.1049289e-04 
8.7802019e-03 8.9267418e-03 -1.4964766e-04 
8.8151461e-03 8.8941762e-03 -5.9031361e-05 
8.8413171e-03 8.9935698e-03 -1.3698159e-04 
8.9115268e-03 9.0725319e-03 -1.2483698e-04 
8.8686459e-03 8.9710932e-03 -6.9359543e-05 
8.9241015e-03 9.0634478e-03 -9.5120129e-05 
8.7327724e-03 8.8544656e-03 -1.3544703e-04 
8.7522101e-03 8.8293850e-03 -7.6917851e-05 
8.9691542e-03 9.1577740e-03 -1.3892193e-04 
8.7777041e-03 8.9235604e-03 -1.4975616e-04 
8.8134585e-03 8.8923946e-03 -5.9361537e-05 
8.6992038e-03 8.7905480e-03 -1.1037997e-04 
8.7249139e-03 8.8572158e-03 -1.5053013e-04 
8.7604309e-03 8.8242851e-03 -5.8544647e-05 
8.6879637e-03 8.7978737e-03 -1.3584252e-04 
8.7075802e-03 8.7725446e-03 -7.6676050e-05 
8.7879160e-03 8.9236461e-03 -1.3466291e-04 
8.8136327e-03 8.9031439e-03 -7.1676637e-05 
8.6542647e-03 8.7335203e-03 -1.1028370e-04 
8.7223314e-03 8.8537810e-03 -1.5045861e-04 
8.7586110e-03 8.8223927e-03 -5.8912734e-05 
8.8954205e-03 9.0641314e-03 -1.3930787e-04 
8.6684190e-03 8.7862257e-03 -1.5139572e-04 
8.6428104e-03 8.7409597e-03 -1.3623378e-04 
8.6625973e-03 8.7153027e-03 -7.6367971e-05 
8.7045562e-03 8.7529309e-03 -5.7983838e-05 
8.8050412e-03 8.9373710e-03 -1.2525686e-04 
8.7321326e-03 8.8551398e-03 -1.3754716e-04 
8.8175489e-03 8.9290161e-03 -9.6411488e-05 
8.7600220e-03 8.8328505e-03 -6.9080605e-05 
8.6090425e-03 8.6760074e-03 -1.1016538e-04 
8.6657712e-03 8.7824985e-03 -1.5117698e-04 
8.7025389e-03 8.7509267e-03 -5.8473030e-05 
8.5973255e-03 8.6835576e-03 -1.3665290e-04 
8.6173471e-03 8.6576585e-03 -7.6098171e-05 
8.6106816e-03 8.7136505e-03 -1.5230509e-04 
8.6474344e-03 8.6801117e-03 -5.7462556e-05 
8.8214381e-03 8.9702774e-03 -1.3972374e-04 
8.5634375e-03 8.6181844e-03 -1.1005094e-04 
8.6763231e-03 8.7821567e-03 -1.3508195e-04 
8.7024821e-03 8.7619852e-03 -7.1650677e-05 
8.5514998e-03 8.6258287e-03 -1.3706321e-04 
8.5717067e-03 8.5996371e-03 -7.5784948e-05 
8.6078988e-03 8.7095965e-03 -1.5184910e-04 
8.6452803e-03 8.6779865e-03 -5.8053694e-05 
8.5175456e-03 8.5599087e-03 -1.0990515e-04 
8.5516460e-03 8.6395051e-03 -1.5312710e-04 
8.5890144e-03 8.6057223e-03 -5.6907102e-05 
8.6938301e-03 8.7963836e-03 -1.2570737e-04 
8.7063480e-03 8.7889601e-03 -9.7861659e-05 
8.6186379e-03 8.7090554e-03 -1.3519068e-04 
8.7472834e-03 8.8763051e-03 -1.4013256e-04 
8.5053835e-03 8.5676871e-03 -1.3740524e-04 
8.5257804e-03 8.5412832e-03 -7.5536671e-05 
8.6450372e-03 8.6892406e-03 -7.1631548e-05 
8.5487822e-03 8.6351624e-03 -1.5248435e-04 
8.5866963e-03 8.6034751e-03 -5.7638859e-05 
8.4712729e-03 8.5013732e-03 -1.0977412e-04 
8.4912051e-03 8.5636945e-03 -1.5398026e-04 
8.5293790e-03 8.5297907e-03 -5.6367677e-05 
8.4589180e-03 8.5092969e-03 -1.3773561e-04 
8.4794695e-03 8.4825503e-03 -7.5205935e-05 
8.5596787e-03 8.6343791e-03 -1.3531452e-04 
8.4971366e-03 8.5157100e-03 -8.8112378e-05 
8.5863564e-03 8.6149694e-03 -7.1705181e-05 
8.4246984e-03 8.4423702e-03 -1.0959790e-04 
8.6727692e-03 8.7818084e-03 -1.4049285e-04 
8.5990559e-03 8.6764591e-03 -1.2618257e-04 
8.4883058e-03 8.5590770e-03 -1.5302397e-04 
8.6124940e-03 8.6677102e-03 -9.5251198e-05 
8.5268533e-03 8.5274931e-03 -5.7213649e-05 
8.4120771e-03 8.4503787e-03 -1.3802382e-04 
8.4328279e-03 8.4234271e-03 -7.4895790e-05 
8.4295562e-03 8.4863398e-03 -1.5469189e-04 
8.4683252e-03 8.4523167e-03 -5.5904766e-05 
8.3777737e-03 8.3830943e-03 -1.0946154e-04 
8.4994147e-03 8.5581085e-03 -1.3543181e-04 
8.5263578e-03 8.5391384e-03 -7.1753944e-05 
8.4264949e-03 8.4813638e-03 -1.5361207e-04 
8.3649838e-03 8.3911670e-03 -1.3834606e-04 
8.3859181e-03 8.3639724e-03 -7.4567077e-05 
8.4656244e-03 8.4498748e-03 -5.6757908e-05 
8.5979430e-03 8.6872857e-03 -1.4092521e-04 
8.3663678e-03 8.4072202e-03 -1.5552192e-04 
8.3305258e-03 8.3234012e-03 -1.0928289e-04 
8.5379062e-03 8.5801147e-03 -1.0349162e-04 
8.5280379e-03 8.5868603e-03 -1.2664151e-04 
8.4059201e-03 8.3731785e-03 -5.5293352e-05 
8.4377620e-03 8.4801894e-03 -1.3545311e-04 
8.4649557e-03 8.4616691e-03 -7.1880786e-05 
8.3174864e-03 8.3315559e-03 -1.3867870e-04 
8.3385948e-03 8.3041275e-03 -7.4232623e-05 
8.3632097e-03 8.4018772e-03 -1.5416967e-04 
8.4030386e-03 8.3705857e-03 -5.6332825e-05 
8.2828579e-03 8.2632918e-03 -1.0908913e-04 
8.5229725e-03 8.5924938e-03 -1.4123012e-04 
8.3016390e-03 8.3262688e-03 -1.5633139e-04 
8.3420575e-03 8.2922755e-03 -5.4675642e-05 
8.2695857e-03 8.2715703e-03 -1.3896191e-04 
8.2908440e-03 8.2438812e-03 -7.3920193e-05 
8.4629524e-03 8.4855109e-03 -1.0369671e-04 
8.4531428e-03 8.4923608e-03 -1.2693179e-04 
8.3733574e-03 8.3990023e-03 -1.3554138e-04 
8.4002726e-03 8.3800219e-03 -7.1742870e-05 
8.2907593e-03 8.2662953e-03 -1.0082466e-04 
8.2349265e-03 8.2028825e-03 -1.0887146e-04 
8.2983989e-03 8.3207684e-03 -1.5486550e-04 
8.3391182e-03 8.2896119e-03 -5.5734945e-05 
8.2215937e-03 8.2111238e-03 -1.3880791e-04 
8.2428204e-03 8.1836004e-03 -7.3930227e-05 
8.2366075e-03 8.2449652e-03 -1.5694097e-04 
8.4478566e-03 8.4977085e-03 -1.4151071e-04 
8.2784360e-03 8.2119517e-03 -5.4173277e-05 
8.1874132e-03 8.1432313e-03 -1.0871264e-04 
8.3059995e-03 8.3149038e-03 -1.3649414e-04 
8.3351936e-03 8.2970364e-03 -7.0481146e-05 
8.3881356e-03 8.3913347e-03 -1.0395234e-04 
8.3784061e-03 8.3982265e-03 -1.2716853e-04 
8.2267560e-03 8.1859222e-03 -1.0085035e-04 
8.1741223e-03 8.1514446e-03 -1.3860867e-04 
8.2332380e-03 8.2395310e-03 -1.5575893e-04 
8.1952279e-03 8.1239063e-03 -7.3874042e-05 
8.2756188e-03 8.2092518e-03 -5.5007175e-05 
8.1404159e-03 8.0840727e-03 -1.0846429e-04 
8.1729377e-03 8.1654647e-03 -1.5753260e-04 
8.2159862e-03 8.1332978e-03 -5.3677628e-05 
8.3728526e-03 8.4031848e-03 -1.4180878e-04 
8.2405964e-03 8.2337596e-03 -1.3779919e-04 
8.2718637e-03 8.2163857e-03 -6.9205620e-05 
8.1269592e-03 8.0922237e-03 -1.3850327e-04 
8.1480406e-03 8.0648409e-03 -7.3833886e-05 
8.2896324e-03 8.2863960e-03 -1.2712867e-04 
8.3043203e-03 8.2788207e-03 -9.5427116e-05 
8.1694201e-03 8.1600910e-03 -1.5662279e-04 
8.2132416e-03 8.1303939e-03 -5.4270302e-05 
8.1482930e-03 8.0874311e-03 -1.0060038e-04 
8.0937697e-03 8.0255978e-03 -1.0826674e-04 
8.1546651e-03 8.0561060e-03 -5.3123458e-05 
8.1104180e-03 8.0875140e-03 -1.5807420e-04 
8.0803083e-03 8.0336463e-03 -1.3832579e-04 
8.1012743e-03 8.0064135e-03 -7.3785748e-05 
8.2096299e-03 8.1372838e-03 -6.7938490e-05 
8.1764795e-03 8.1542982e-03 -1.3908889e-04 
8.2981205e-03 8.3092880e-03 -1.4212588e-04 
8.0474475e-03 7.9676732e-03 -1.0808756e-04 
8.1519270e-03 8.0530867e-03 -5.3540465e-05 
8.1067756e-03 8.0823041e-03 -1.5744961e-04 
8.2296561e-03 8.2115121e-03 -1.2780320e-04 
8.2261367e-03 8.1818365e-03 -9.6935277e-05 
8.0339611e-03 7.9756267e-03 -1.3811550e-04 
8.0527440e-03 7.9465229e-03 -7.4580385e-05 
8.0944458e-03 7.9803215e-03 -5.2462001e-05 
8.0490969e-03 8.0113197e-03 -1.5867798e-04 
8.0445232e-03 7.9606483e-03 -1.0407627e-04 
8.0015408e-03 7.9101501e-03 -1.0781820e-04 
8.1483582e-03 8.0596693e-03 -6.6808214e-05 
8.1203785e-03 8.0798352e-03 -1.3417675e-04 
8.0915885e-03 7.9772864e-03 -5.2941290e-05 
8.0453502e-03 8.0060223e-03 -1.5822209e-04 
7.9879873e-03 7.9180477e-03 -1.3786330e-04 
8.2238326e-03 8.2161939e-03 -1.4249959e-04 
8.0087828e-03 7.8909826e-03 -7.3597832e-05 
8.0275312e-03 7.9326713e-03 -9.5833297e-05 
8.1580756e-03 8.0965245e-03 -9.6858384e-05 
7.9559963e-03 7.8532863e-03 -1.0759311e-04 
8.0350144e-03 7.9060541e-03 -5.2060175e-05 
7.9888776e-03 7.9364404e-03 -1.5910216e-04 
8.1556337e-03 8.1188893e-03 -1.2801372e-04 
8.0881640e-03 7.9835979e-03 -6.5576103e-05 
8.0518937e-03 8.0001801e-03 -1.4133603e-04 
7.9424018e-03 7.8611095e-03 -1.3769894e-04 
7.9631526e-03 7.8341551e-03 -7.3518953e-05 
8.0323191e-03 7.9029156e-03 -5.2221934e-05 
7.9850582e-03 7.9312483e-03 -1.5887849e-04 
7.9600997e-03 7.8454250e-03 -9.1787617e-05 
7.9107797e-03 7.7969413e-03 -1.0737596e-04 
8.1497040e-03 8.1235040e-03 -1.4289223e-04 
7.9766894e-03 7.8330645e-03 -5.1448693e-05 
7.9297042e-03 7.8630988e-03 -1.5954285e-04 
8.0846539e-03 7.9992320e-03 -9.0207373e-05 
8.0616428e-03 8.0014393e-03 -1.2818248e-04 
7.8971516e-03 7.8046662e-03 -1.3746567e-04 
8.0289887e-03 7.9088863e-03 -6.4434411e-05 
7.9203770e-03 7.7769253e-03 -6.8386536e-05 
7.9913698e-03 7.9255421e-03 -1.4245491e-04 
7.8658368e-03 7.7410489e-03 -1.0716044e-04 
7.9739708e-03 7.8298189e-03 -5.1501007e-05 
7.9258010e-03 7.8580100e-03 -1.5948732e-04 
7.8727938e-03 7.7219987e-03 -7.3338408e-05 
7.8500370e-03 7.7438164e-03 -1.3449410e-04 
7.9192938e-03 7.7614002e-03 -5.0908595e-05 
7.8715356e-03 7.7911173e-03 -1.5995972e-04 
8.0757886e-03 8.0311475e-03 -1.4309137e-04 
7.8693694e-03 7.7474862e-03 -1.0969976e-04 
7.9707690e-03 7.8356313e-03 -6.3345062e-05 
7.9318034e-03 7.8522479e-03 -1.4352976e-04 
7.8212591e-03 7.6857829e-03 -1.0697112e-04 
7.9164859e-03 7.7581815e-03 -5.0912218e-05 
8.0083115e-03 7.9349373e-03 -1.2847650e-04 
8.0176229e-03 7.9280026e-03 -1.0553666e-04 
7.8416998e-03 7.6792343e-03 -6.8005174e-05 
7.8675142e-03 7.7860081e-03 -1.6002049e-04 
7.8136344e-03 7.7035204e-03 -1.4044836e-04 
7.9770861e-03 7.8567350e-03 -7.9739220e-05 
7.9484098e-03 7.8620622e-03 -1.3043649e-04 
7.8626461e-03 7.6910448e-03 -5.0454786e-05 
7.8145396e-03 7.7204895e-03 -1.6012711e-04 
7.7771088e-03 7.6310127e-03 -1.0669525e-04 
7.9134265e-03 7.7636465e-03 -6.2242216e-05 
7.8734113e-03 7.7804993e-03 -1.4449802e-04 
8.0018025e-03 7.9388022e-03 -1.4332213e-04 
7.7957716e-03 7.6208077e-03 -6.5756234e-05 
7.7651213e-03 7.6438016e-03 -1.4073697e-04 
7.8599621e-03 7.6876590e-03 -5.0279479e-05 
7.8103556e-03 7.7155218e-03 -1.6059019e-04 
7.7332854e-03 7.5766547e-03 -1.0643161e-04 
7.9348153e-03 7.8435410e-03 -1.2861750e-04 
7.9439972e-03 7.8366417e-03 -1.0579237e-04 
7.8069707e-03 7.6217898e-03 -4.9850303e-05 
7.7584404e-03 7.6513323e-03 -1.6041988e-04 
7.8569185e-03 7.6928907e-03 -6.1219536e-05 
7.7175987e-03 7.5843665e-03 -1.3981618e-04 
7.8046601e-03 7.6984582e-03 -1.4839369e-04 
7.8754239e-03 7.7296011e-03 -7.8352052e-05 
7.7399416e-03 7.5517423e-03 -6.5513828e-05 
7.8042028e-03 7.6184128e-03 -4.9693906e-05 
7.7541936e-03 7.6462682e-03 -1.6104516e-04 
7.6896511e-03 7.5228103e-03 -1.0616363e-04 
7.9282131e-03 7.8471499e-03 -1.4345665e-04 
7.7139302e-03 7.5539607e-03 -1.0784696e-04 
7.7520851e-03 7.5538768e-03 -4.9285871e-05 
7.8259539e-03 7.7095809e-03 -1.2981273e-04 
7.6756687e-03 7.5279325e-03 -1.3381653e-04 
7.7032093e-03 7.5831986e-03 -1.6067720e-04 
7.6961867e-03 7.5039486e-03 -7.2869392e-05 
7.8012752e-03 7.6234131e-03 -6.0189119e-05 
7.8616310e-03 7.7527352e-03 -1.2864528e-04 
7.8707319e-03 7.7458676e-03 -1.0588305e-04 
7.7595050e-03 7.6407911e-03 -1.4635334e-04 
7.6972246e-03 7.4953418e-03 -6.0493228e-05 
7.6463725e-03 7.4694757e-03 -1.0591980e-04 
7.7493251e-03 7.5504039e-03 -4.9003705e-05 
7.6988623e-03 7.5782719e-03 -1.6146019e-04 
7.6584187e-03 7.4581588e-03 -7.3558207e-05 
7.6327715e-03 7.4765598e-03 -1.3558188e-04 
7.6979869e-03 7.4869376e-03 -4.8755835e-05 
7.6488587e-03 7.5164749e-03 -1.6081271e-04 
7.8547895e-03 7.7561117e-03 -1.4362155e-04 
7.7463626e-03 7.5550880e-03 -5.9202219e-05 
7.6034237e-03 7.4165552e-03 -1.0564846e-04 
7.6930779e-03 7.5617339e-03 -1.4991793e-04 
7.6352367e-03 7.4219592e-03 -6.3813844e-05 
7.7684191e-03 7.5984467e-03 -7.9623715e-05 
7.6951468e-03 7.4834367e-03 -4.8406626e-05 
7.6572117e-03 7.4703870e-03 -9.0510541e-05 
7.5952774e-03 7.4345167e-03 -1.4063732e-04 
7.7886465e-03 7.6624313e-03 -1.2880040e-04 
7.6444508e-03 7.5114714e-03 -1.6185580e-04 
7.7976589e-03 7.6556071e-03 -1.0610886e-04 
7.6445881e-03 7.4212584e-03 -4.8320995e-05 
7.7137984e-03 7.5717266e-03 -1.3073669e-04 