# vtk DataFile Version 4.0
vtk output
ASCII
DATASET UNSTRUCTURED_GRID
POINTS 4496 float
-4.3633327e-01 9.6409470e-01 4.4200001e+01 
-4.3633258e-01 9.6409065e-01 4.4074627e+01 
-3.2152572e-01 9.1279918e-01 4.4200001e+01 
-3.8534868e-01 8.4052670e-01 4.4200001e+01 
-3.9589554e-01 8.5545403e-01 4.4010014e+01 
-3.2616228e-01 9.1667932e-01 4.4011734e+01 
-4.3633190e-01 9.6408653e-01 4.3948376e+01 
-2.1293370e-01 8.4677851e-01 4.4200001e+01 
-2.9042658e-01 7.3813015e-01 4.4200001e+01 
-2.1010752e-01 8.4669363e-01 4.4073502e+01 
-2.8908840e-01 7.3604190e-01 4.4072292e+01 
-3.9589015e-01 8.5505831e-01 4.3883316e+01 
-3.2487559e-01 9.1697580e-01 4.3885036e+01 
-2.0722924e-01 8.4660655e-01 4.3944645e+01 
-1.1981077e-01 7.7773046e-01 4.4200001e+01 
-2.8772619e-01 7.3391593e-01 4.3942276e+01 
-4.3633121e-01 9.6408242e-01 4.3821228e+01 
-1.9739023e-01 6.6468561e-01 4.4200001e+01 
-2.9444304e-01 7.8727525e-01 4.3879974e+01 
-8.7554991e-02 7.5255024e-01 4.4042213e+01 
-1.6445170e-01 6.4084798e-01 4.4041008e+01 
-3.2357255e-01 9.1726828e-01 4.3757431e+01 
-3.9587301e-01 8.5463828e-01 4.3755711e+01 
-2.0429766e-01 8.4651643e-01 4.3813354e+01 
-2.8633916e-01 7.3175091e-01 4.3809875e+01 
-2.6899619e-02 6.8901783e-01 4.4200001e+01 
-1.0567340e-01 7.7152997e-01 4.3875790e+01 
-4.3633053e-01 9.6407831e-01 4.3693161e+01 
-8.7133333e-02 5.9509218e-01 4.4200001e+01 
-1.8777622e-01 6.5475601e-01 4.3873402e+01 
-2.0131156e-01 8.4642249e-01 4.3679543e+01 
-3.2225290e-01 9.1755641e-01 4.3628902e+01 
-3.9584404e-01 8.5419410e-01 4.3627178e+01 
-1.0114321e-03 6.6670936e-01 4.3939713e+01 
-2.8492665e-01 7.2954547e-01 4.3675007e+01 
-1.0131179e-01 7.7015632e-01 4.3743176e+01 
-6.0682178e-02 5.7631296e-01 4.3938457e+01 
3.9444737e-02 6.2338209e-01 4.4053139e+01 
-1.8470748e-01 6.5131217e-01 4.3739727e+01 
-7.0938184e-03 5.4737431e-01 4.4052326e+01 
-4.3632981e-01 9.6407413e-01 4.3564159e+01 
7.6947339e-02 5.8804804e-01 4.4200001e+01 
-1.2721874e-02 6.8194175e-01 4.3817982e+01 
-7.7214435e-02 5.8474159e-01 4.3819649e+01 
4.0195532e-02 5.2425718e-01 4.4200001e+01 
-1.9826968e-01 8.4632379e-01 4.3543118e+01 
-9.6842363e-02 7.6872379e-01 4.3607994e+01 
-3.2091641e-01 9.1783977e-01 4.3499420e+01 
-3.9580306e-01 8.5372573e-01 4.3497700e+01 
-2.8348783e-01 7.2729832e-01 4.3537586e+01 
-1.8155001e-01 6.4778340e-01 4.3603539e+01 
1.5678726e-01 5.2239102e-01 4.4060219e+01 
1.0298219e-02 6.6009766e-01 4.3674484e+01 
1.3250886e-01 4.7546524e-01 4.4058990e+01 
-4.3632913e-01 9.6407002e-01 4.3434200e+01 
-5.0139543e-02 5.6696451e-01 4.3671154e+01 
1.3504514e-01 5.4209155e-01 4.3856747e+01 
1.0361936e-01 4.8715758e-01 4.3855240e+01 
2.0846681e-01 4.8028421e-01 4.4200001e+01 
1.9279444e-01 4.4799727e-01 4.4200001e+01 
-9.2261828e-02 7.6722860e-01 4.3470158e+01 
-1.4701239e-03 6.7547697e-01 4.3552124e+01 
-1.9517080e-01 8.4621930e-01 4.3403992e+01 
-3.1956279e-01 9.1811794e-01 4.3368977e+01 
-3.9574999e-01 8.5323322e-01 4.3367252e+01 
-1.7830023e-01 6.4416617e-01 4.3464752e+01 
-6.7131944e-02 5.7555372e-01 4.3547829e+01 
-2.8202194e-01 7.2500783e-01 4.3397518e+01 
-4.3632844e-01 9.6406585e-01 4.3303261e+01 
1.5138821e-01 5.3037512e-01 4.3609200e+01 
1.2119007e-01 4.7490793e-01 4.3606068e+01 
-8.7566733e-02 7.6566672e-01 4.3329563e+01 
-1.7495437e-01 6.4045686e-01 4.3323273e+01 
-3.1819177e-01 9.1839045e-01 4.3237537e+01 
-3.9568463e-01 8.5271639e-01 4.3235813e+01 
2.2269404e-02 6.5294570e-01 4.3398811e+01 
-1.9201367e-01 8.4610778e-01 4.3262066e+01 
-3.8899176e-02 5.5709696e-01 4.3393635e+01 
-2.8052819e-01 7.2267252e-01 4.3254715e+01 
3.7877345e-01 3.8273901e-01 4.4200001e+01 
-4.3632776e-01 9.6406174e-01 4.3171322e+01 
3.9241230e-01 3.7329337e-01 4.3965439e+01 
1.0283732e-02 6.6872352e-01 4.3271511e+01 
-5.6385640e-02 5.6585240e-01 4.3265472e+01 
-8.2753494e-02 7.6403379e-01 4.3186119e+01 
-4.0345609e-01 8.6371827e-01 4.3104889e+01 
-3.1680310e-01 9.1865683e-01 4.3105087e+01 
-1.7150842e-01 6.3665158e-01 4.3179005e+01 
-1.8879703e-01 8.4598809e-01 4.3117241e+01 
-2.7900568e-01 7.2029078e-01 4.3109074e+01 
4.0610775e-01 3.6380205e-01 4.3729839e+01 
1.6776134e-01 5.1882964e-01 4.3331150e+01 
-4.3632707e-01 9.6405768e-01 4.3038357e+01 
1.4031014e-01 4.6124566e-01 4.3307755e+01 
3.4952711e-02 6.4519531e-01 4.3111935e+01 
-7.7818394e-02 7.6232505e-01 4.3039719e+01 
-3.1539652e-01 9.1891652e-01 4.2971603e+01 
-3.9551663e-01 8.5160977e-01 4.2969879e+01 
-2.6899155e-02 5.4666573e-01 4.3105160e+01 
-1.6795819e-01 6.3274628e-01 4.3031849e+01 
-1.8551964e-01 8.4585863e-01 4.2969406e+01 
4.1985780e-01 3.5425979e-01 4.3493168e+01 
-2.7745360e-01 7.1786088e-01 4.2960495e+01 
-4.3632638e-01 9.6405357e-01 4.2904346e+01 
2.2723136e-02 6.6139150e-01 4.2979332e+01 
-4.4916678e-02 5.5559248e-01 4.2971806e+01 
-3.1397179e-01 9.1916907e-01 4.2837063e+01 
-3.9541367e-01 8.5101974e-01 4.2835335e+01 
-7.2757579e-02 7.6053542e-01 4.2890255e+01 
-1.6429928e-01 6.2873662e-01 4.2881699e+01 
1.8463810e-01 5.0694346e-01 4.3035332e+01 
-1.8218029e-01 8.4571803e-01 4.2818455e+01 
1.5503895e-01 4.5003417e-01 4.3027725e+01 
-2.7587104e-01 7.1538109e-01 4.2808868e+01 
4.3366045e-01 3.4466109e-01 4.3255390e+01 
-4.3632573e-01 9.6404958e-01 4.2769268e+01 
-3.8429454e-01 8.3484912e-01 4.2710606e+01 
-3.1252861e-01 9.1941386e-01 4.2701439e+01 
4.8404284e-02 6.3678014e-01 4.2813030e+01 
-1.4070326e-02 5.3562075e-01 4.2804932e+01 
-6.7567028e-02 7.5865942e-01 4.2737610e+01 
-1.6052702e-01 6.2461799e-01 4.2728443e+01 
-1.7877772e-01 8.4556442e-01 4.2664265e+01 
-4.3632504e-01 9.6404558e-01 4.2633099e+01 
-2.7425703e-01 7.1284944e-01 4.2654083e+01 
4.4751364e-01 3.3500037e-01 4.3016472e+01 
3.5901129e-02 6.5341437e-01 4.2674721e+01 
-3.7959340e-01 8.2794034e-01 4.2568317e+01 
-3.1106678e-01 9.1965032e-01 4.2564713e+01 
-3.2659348e-02 5.4472327e-01 4.2665997e+01 
2.0396979e-01 4.9291667e-01 4.2740131e+01 
-6.2242586e-02 7.5669110e-01 4.2581669e+01 
1.7765003e-01 4.3475360e-01 4.2732578e+01 
-1.5663649e-01 6.2038553e-01 4.2571964e+01 
-4.3632439e-01 9.6404165e-01 4.2495808e+01 
-1.7531081e-01 8.4539592e-01 4.2506718e+01 
-2.7261066e-01 7.1026409e-01 4.2496017e+01 
-3.0958602e-01 9.1987789e-01 4.2426853e+01 
-3.7859210e-01 8.2613736e-01 4.2421188e+01 
4.6141517e-01 3.2527190e-01 4.2776375e+01 
6.2686495e-02 6.2762415e-01 4.2501175e+01 
-3.3570320e-04 5.2390522e-01 4.2492062e+01 
-5.6779940e-02 7.5462401e-01 4.2422298e+01 
-4.3632373e-01 9.6403772e-01 4.2357380e+01 
-1.5262254e-01 6.1603409e-01 4.2412144e+01 
-1.7177837e-01 8.4521037e-01 4.2345684e+01 
-2.7093092e-01 7.0762289e-01 4.2334549e+01 
-3.0808610e-01 9.2009580e-01 4.2287842e+01 
-3.8275370e-01 8.3137155e-01 4.2275047e+01 
4.9876589e-02 6.4471585e-01 4.2356720e+01 
-1.9539909e-02 5.3318781e-01 4.2347118e+01 
-4.3632311e-01 9.6403396e-01 4.2217781e+01 
2.1959943e-01 4.8236796e-01 4.2385345e+01 
-5.1174615e-02 7.5245124e-01 4.2259373e+01 
1.9034323e-01 4.2346162e-01 4.2378918e+01 
-1.4847966e-01 6.1155808e-01 4.2248856e+01 
4.7536272e-01 3.1546980e-01 4.2535065e+01 
-1.6817927e-01 8.4500539e-01 4.2181026e+01 
-2.6921678e-01 7.0492369e-01 4.2169544e+01 
-3.0656675e-01 9.2030340e-01 4.2147648e+01 
-3.9470181e-01 8.4769493e-01 4.2145920e+01 
7.7868804e-02 6.1763972e-01 4.2175373e+01 
-4.3632248e-01 9.6403021e-01 4.2076988e+01 
1.4390758e-02 5.1145434e-01 4.2165581e+01 
-4.5421973e-02 7.5016522e-01 4.2092751e+01 
-1.4420210e-01 6.0695171e-01 4.2081959e+01 
-3.0502778e-01 9.2049998e-01 4.2006248e+01 
-4.0175444e-01 8.5747409e-01 4.2004128e+01 
-1.6451253e-01 8.4477836e-01 4.2012604e+01 
4.8935395e-01 3.0558801e-01 4.2292507e+01 
-2.6746723e-01 7.0216429e-01 4.2000870e+01 
6.4714879e-02 6.3520777e-01 4.2024277e+01 
-4.3632188e-01 9.6402657e-01 4.1934975e+01 
-5.4755262e-03 5.2092212e-01 4.2014156e+01 
-2.3078828e-01 8.1064087e-01 4.1931458e+01 
2.3550548e-01 4.7116494e-01 4.2073269e+01 
2.0610523e-01 4.1123796e-01 4.2066772e+01 
-3.9517213e-02 7.4775779e-01 4.1922287e+01 
-1.3978374e-01 6.0220873e-01 4.1911320e+01 
-3.0346894e-01 9.2068475e-01 4.1863613e+01 
-3.9432141e-01 8.4618556e-01 4.1861881e+01 
-1.6077711e-01 8.4452641e-01 4.1840263e+01 
-2.6568118e-01 6.9934219e-01 4.1828377e+01 
-4.3632129e-01 9.6402299e-01 4.1791718e+01 
5.0338638e-01 2.9562023e-01 4.2048656e+01 
9.4028555e-02 6.0672593e-01 4.1834507e+01 
3.0205652e-02 4.9819478e-01 4.1824417e+01 
-3.8116732e-01 8.2744831e-01 4.1725647e+01 
-3.0189002e-01 9.2085695e-01 4.1719719e+01 
-3.3455357e-02 7.4522001e-01 4.1747829e+01 
-1.3521814e-01 5.9732240e-01 4.1736786e+01 
-4.3632072e-01 9.6401960e-01 4.1647179e+01 
-1.5697217e-01 8.4424627e-01 4.1663853e+01 
-2.6385748e-01 6.9645494e-01 4.1651920e+01 
8.0488607e-02 6.2478805e-01 4.1676235e+01 
2.6870471e-01 4.4547972e-01 4.1752304e+01 
9.6269641e-03 5.0785345e-01 4.1665993e+01 
2.4764967e-01 3.8646612e-01 4.1743168e+01 
-3.0029076e-01 9.2101562e-01 4.1574532e+01 
-3.9388368e-01 8.4456980e-01 4.1572796e+01 
5.1745731e-01 2.8556010e-01 4.1803486e+01 
-2.7231261e-02 7.4254233e-01 4.1569210e+01 
-1.3049847e-01 5.9228569e-01 4.1558201e+01 
-4.3632016e-01 9.6401632e-01 4.1501339e+01 
-1.5309690e-01 8.4393430e-01 4.1483204e+01 
-2.6199502e-01 6.9349992e-01 4.1471333e+01 
-2.9867104e-01 9.2115986e-01 4.1428024e+01 
-3.9364263e-01 8.4372103e-01 4.1426289e+01 
1.1125199e-01 5.9476525e-01 4.1477348e+01 
4.7217656e-02 4.8404291e-01 4.1467384e+01 
-4.3631962e-01 9.6401310e-01 4.1354160e+01 
-2.0839609e-02 7.3971421e-01 4.1386261e+01 
-1.2561750e-01 5.8709091e-01 4.1375404e+01 
5.3156406e-01 2.7540097e-01 4.1556946e+01 
-1.4915068e-01 8.4358656e-01 4.1298138e+01 
-2.9703063e-01 9.2128879e-01 4.1280167e+01 
-3.9338648e-01 8.4284443e-01 4.1278431e+01 
-2.6009262e-01 6.9047421e-01 4.1286449e+01 
2.9365057e-01 4.2687622e-01 4.1391586e+01 
9.7278498e-02 6.1333776e-01 4.1311302e+01 
2.7470219e-01 3.6807936e-01 4.1382729e+01 
2.5872495e-02 4.9389899e-01 4.1301384e+01 
-4.3631911e-01 9.6401012e-01 4.1205620e+01 
-1.4274905e-02 7.3672432e-01 4.1198803e+01 
-1.2056758e-01 5.8173001e-01 4.1188221e+01 
-2.9536936e-01 9.2140132e-01 4.1130928e+01 
[...]
POINT_DATA 4496
FIELD FieldData 5
DISPLACEMENT 3 4496  float
1.2091143e-05 1.4834154e-05 -2.8383710e-07 
1.1948042e-05 1.4642218e-05 -2.8381049e-07 
1.2630245e-05 1.6040838e-05 -3.3648129e-07 
1.3389862e-05 1.5370009e-05 -1.5287443e-07 
1.3015963e-05 1.4968377e-05 -1.6374112e-07 
1.2374506e-05 1.5703794e-05 -3.3707889e-07 
1.1804214e-05 1.4449417e-05 -2.8375126e-07 
1.3324274e-05 1.7182534e-05 -3.5961307e-07 
1.4466346e-05 1.6367861e-05 -1.0443082e-07 
1.3180485e-05 1.7018303e-05 -3.6268872e-07 
1.4342164e-05 1.6186159e-05 -1.0273364e-07 
1.2875627e-05 1.4774935e-05 -1.6312093e-07 
1.2227043e-05 1.5523608e-05 -3.3902026e-07 
1.3034216e-05 1.6850845e-05 -3.6575713e-07 
1.4050221e-05 1.8161729e-05 -3.6052367e-07 
1.4215656e-05 1.6001495e-05 -1.0115529e-07 
1.1659727e-05 1.4255706e-05 -2.8367253e-07 
1.5238666e-05 1.7346161e-05 -9.8256336e-08 
1.3583852e-05 1.5835583e-05 -1.7524511e-07 
1.4134264e-05 1.8258675e-05 -3.5888891e-07 
1.5306996e-05 1.7448338e-05 -9.9380976e-08 
1.2079154e-05 1.5342604e-05 -3.4053895e-07 
1.2734688e-05 1.4580826e-05 -1.6270086e-07 
1.2885454e-05 1.6680478e-05 -3.6887212e-07 
1.4086881e-05 1.5813639e-05 -9.9527476e-08 
1.4983109e-05 1.9139108e-05 -3.3105979e-07 
1.3744442e-05 1.7812410e-05 -3.6705558e-07 
1.1515316e-05 1.4061188e-05 -2.8347259e-07 
1.5970872e-05 1.8505816e-05 -1.1751647e-07 
1.4968411e-05 1.6946076e-05 -9.4102511e-08 
1.2734391e-05 1.6507127e-05 -3.7191913e-07 
1.1930827e-05 1.5160776e-05 -3.4231971e-07 
1.2593580e-05 1.4386307e-05 -1.6253243e-07 
1.4919133e-05 1.9010680e-05 -3.2659349e-07 
1.3955689e-05 1.5622723e-05 -9.7999489e-08 
1.3607428e-05 1.7654485e-05 -3.6978577e-07 
1.5867665e-05 1.8381581e-05 -1.1886152e-07 
1.5504800e-05 1.9611087e-05 -3.0647615e-07 
1.4850938e-05 1.6773502e-05 -9.2490517e-08 
1.6303211e-05 1.9120465e-05 -1.3572412e-07 
1.1370027e-05 1.3866720e-05 -2.8337962e-07 
1.6045380e-05 2.0232299e-05 -2.9515533e-07 
1.4619375e-05 1.8699930e-05 -3.3653976e-07 
1.5642216e-05 1.8025068e-05 -1.1288999e-07 
1.6716636e-05 1.9845695e-05 -1.5436133e-07 
1.2580718e-05 1.6330479e-05 -3.7493072e-07 
1.3468325e-05 1.7493789e-05 -3.7245042e-07 
1.1782127e-05 1.4978586e-05 -3.4381074e-07 
1.2452069e-05 1.4191093e-05 -1.6181720e-07 
1.3822589e-05 1.5428859e-05 -9.6533284e-08 
1.4731689e-05 1.6598224e-05 -9.0827704e-08 
1.6575226e-05 2.0856642e-05 -2.8592046e-07 
1.4684021e-05 1.8720222e-05 -3.2943342e-07 
1.7067423e-05 2.0599324e-05 -1.8515213e-07 
1.1224790e-05 1.3670858e-05 -2.8311030e-07 
1.5657581e-05 1.8080800e-05 -1.1665388e-07 
1.6133221e-05 2.0312602e-05 -2.9141987e-07 
1.6708658e-05 1.9980056e-05 -1.6979475e-07 
1.7179893e-05 2.1617421e-05 -2.8043141e-07 
1.7519695e-05 2.1452499e-05 -2.1204080e-07 
1.3327283e-05 1.7330281e-05 -3.7525075e-07 
1.4382576e-05 1.8408164e-05 -3.3926480e-07 
1.2424807e-05 1.6151149e-05 -3.7801499e-07 
1.1632795e-05 1.4795472e-05 -3.4563132e-07 
1.2310304e-05 1.3995514e-05 -1.6159132e-07 
1.4610479e-05 1.6420519e-05 -8.9443972e-08 
1.5425123e-05 1.7713037e-05 -1.1077245e-07 
1.3686895e-05 1.5231766e-05 -9.5236061e-08 
1.1078880e-05 1.3474888e-05 -2.8311356e-07 
1.5970132e-05 2.0099487e-05 -2.9222625e-07 
1.6548158e-05 1.9777992e-05 -1.7089621e-07 
1.3184263e-05 1.7164310e-05 -3.7766316e-07 
1.4487166e-05 1.6239910e-05 -8.7889852e-08 
1.1483601e-05 1.4612350e-05 -3.4707364e-07 
1.2168649e-05 1.3799549e-05 -1.6157227e-07 
1.4443165e-05 1.8420486e-05 -3.3184477e-07 
1.2266519e-05 1.5968437e-05 -3.8086884e-07 
1.5440864e-05 1.7771819e-05 -1.1460438e-07 
1.3549015e-05 1.5031645e-05 -9.3939569e-08 
1.8206894e-05 2.3410539e-05 -3.2583142e-07 
1.0932701e-05 1.3278152e-05 -2.8320088e-07 
1.8033836e-05 2.3187671e-05 -3.2688189e-07 
1.4132781e-05 1.8099094e-05 -3.4183674e-07 
1.5201416e-05 1.7392473e-05 -1.0861468e-07 
1.3039496e-05 1.6995413e-05 -3.8021565e-07 
1.1906947e-05 1.3522861e-05 -1.7014460e-07 
1.1333213e-05 1.4427837e-05 -3.4887728e-07 
1.4362404e-05 1.6057173e-05 -8.6577430e-08 
1.2106094e-05 1.5783184e-05 -3.8375182e-07 
1.3409682e-05 1.4829002e-05 -9.2412186e-08 
1.7858600e-05 2.2961949e-05 -3.2779752e-07 
1.5769192e-05 1.9838541e-05 -2.9311744e-07 
1.0785985e-05 1.3081608e-05 -2.8331522e-07 
1.6344269e-05 1.9515091e-05 -1.7167518e-07 
1.4196822e-05 1.8111186e-05 -3.3391899e-07 
1.2892907e-05 1.6824051e-05 -3.8245594e-07 
1.1184018e-05 1.4243715e-05 -3.5002910e-07 
1.1883742e-05 1.3405740e-05 -1.6100334e-07 
1.5217563e-05 1.7454830e-05 -1.1264635e-07 
1.4235306e-05 1.5871490e-05 -8.5105164e-08 
1.1943317e-05 1.5594420e-05 -3.8634766e-07 
1.7681206e-05 2.2731241e-05 -3.2862800e-07 
1.3267410e-05 1.4622902e-05 -9.1324061e-08 
1.0640479e-05 1.2883746e-05 -2.8304405e-07 
1.3877535e-05 1.7780241e-05 -3.4401504e-07 
1.4971149e-05 1.7063780e-05 -1.0678147e-07 
1.1034229e-05 1.4058995e-05 -3.5196732e-07 
1.1741807e-05 1.3208874e-05 -1.6119694e-07 
1.2744528e-05 1.6649701e-05 -3.8481579e-07 
1.4106909e-05 1.5683907e-05 -8.4102169e-08 
1.5551495e-05 1.9554196e-05 -2.9402489e-07 
1.1778136e-05 1.5402336e-05 -3.8882624e-07 
1.6135804e-05 1.9233936e-05 -1.7122561e-07 
1.3123858e-05 1.4414735e-05 -9.0712113e-08 
1.7502342e-05 2.2498660e-05 -3.3037139e-07 
1.0493676e-05 1.2687328e-05 -2.8290978e-07 
1.1772881e-05 1.3142398e-05 -1.4957321e-07 
1.0884795e-05 1.3874962e-05 -3.5279419e-07 
1.3945567e-05 1.7792931e-05 -3.3563481e-07 
1.4987972e-05 1.7130715e-05 -1.1127214e-07 
1.2594001e-05 1.6473137e-05 -3.8694265e-07 
1.3976191e-05 1.5493715e-05 -8.2766235e-08 
1.1611465e-05 1.5208527e-05 -3.9111001e-07 
1.0347731e-05 1.2490376e-05 -2.8255397e-07 
1.2977819e-05 1.4202440e-05 -8.9887578e-08 
1.7321125e-05 2.2261880e-05 -3.3103757e-07 
1.3617386e-05 1.7452574e-05 -3.4578483e-07 
1.1690142e-05 1.2984717e-05 -1.4456207e-07 
1.0735732e-05 1.3690244e-05 -3.5302457e-07 
1.4734615e-05 1.6728054e-05 -1.0551546e-07 
1.5356929e-05 1.9296296e-05 -2.9424965e-07 
1.2443076e-05 1.6294225e-05 -3.8935244e-07 
1.5951515e-05 1.9011553e-05 -1.7370044e-07 
1.3844576e-05 1.5301606e-05 -8.3031466e-08 
1.0202801e-05 1.2293041e-05 -2.8160295e-07 
1.1442309e-05 1.5011943e-05 -3.9381132e-07 
1.2829754e-05 1.3988842e-05 -8.9455682e-08 
1.0586233e-05 1.3506137e-05 -3.5441460e-07 
1.1550067e-05 1.2784698e-05 -1.4423766e-07 
1.7140228e-05 2.2025333e-05 -3.3118954e-07 
1.3690577e-05 1.7466746e-05 -3.3647487e-07 
1.4753202e-05 1.6800601e-05 -1.1009223e-07 
1.2290382e-05 1.6113392e-05 -3.9034450e-07 
1.0057359e-05 1.2097438e-05 -2.8143970e-07 
1.3710974e-05 1.5107335e-05 -8.2514113e-08 
1.1271783e-05 1.4812706e-05 -3.9557372e-07 
1.2680177e-05 1.3773026e-05 -8.9128896e-08 
1.0438160e-05 1.3322943e-05 -3.5525588e-07 
1.1340312e-05 1.2535170e-05 -1.4879298e-07 
1.3354113e-05 1.7116625e-05 -3.4661025e-07 
1.4494344e-05 1.6386637e-05 -1.0433872e-07 
9.9131212e-06 1.1902832e-05 -2.8110455e-07 
1.5061098e-05 1.8911429e-05 -2.9513583e-07 
1.2136813e-05 1.5930922e-05 -3.9122426e-07 
1.5661521e-05 1.8599847e-05 -1.7192927e-07 
1.3576388e-05 1.4912337e-05 -8.2324974e-08 
1.6958818e-05 2.1786771e-05 -3.3095020e-07 
1.1099765e-05 1.4611306e-05 -3.9724728e-07 
1.2528702e-05 1.3554946e-05 -8.9010570e-08 
1.0291714e-05 1.3141482e-05 -3.5560694e-07 
1.1037515e-05 1.2232548e-05 -1.6095258e-07 
1.3434189e-05 1.7135435e-05 -3.3659620e-07 
9.7694810e-06 1.1708275e-05 -2.8101834e-07 
1.4515682e-05 1.6467655e-05 -1.1054760e-07 
1.1982637e-05 1.5746982e-05 -3.9202587e-07 
1.3442078e-05 1.4716021e-05 -8.1879662e-08 
1.0143435e-05 1.2958448e-05 -3.5722886e-07 
1.0788298e-05 1.1963110e-05 -1.6859431e-07 
1.0926442e-05 1.4408053e-05 -3.9878950e-07 
1.6777616e-05 2.1546586e-05 -3.3075588e-07 
1.2377818e-05 1.3336467e-05 -8.8445155e-08 
1.3090565e-05 1.6777622e-05 -3.4647761e-07 
9.6236845e-06 1.1513502e-05 -2.8120252e-07 
1.4251819e-05 1.6043536e-05 -1.0472601e-07 
1.1193005e-05 1.3614906e-05 -2.7997370e-07 
1.4826569e-05 1.8602177e-05 -2.9523264e-07 
1.5434047e-05 1.8290955e-05 -1.7254440e-07 
1.1828311e-05 1.5562640e-05 -3.9300920e-07 
1.3306800e-05 1.4519435e-05 -8.1572118e-08 
9.9951249e-06 1.2775153e-05 -3.5776478e-07 
1.0755855e-05 1.1842607e-05 -1.6155796e-07 
1.0751709e-05 1.4204639e-05 -4.0046905e-07 
1.2226293e-05 1.3115037e-05 -8.8460204e-08 
9.4798479e-06 1.1318700e-05 -2.8053367e-07 
1.6598820e-05 2.1309337e-05 -3.3078621e-07 
1.3178635e-05 1.6801630e-05 -3.3613421e-07 
1.4277020e-05 1.6134198e-05 -1.1163362e-07 
1.0810313e-05 1.1792688e-05 -1.4873449e-07 
9.8502624e-06 1.2595110e-05 -3.5743241e-07 
1.1672920e-05 1.5375936e-05 -3.9375220e-07 
1.3170536e-05 1.4320774e-05 -8.1221813e-08 
9.3384842e-06 1.1124964e-05 -2.7933822e-07 
1.0576417e-05 1.3997873e-05 -4.0204031e-07 
1.2071408e-05 1.2891438e-05 -8.9051120e-08 
1.2827492e-05 1.6435990e-05 -3.4533826e-07 
1.4735698e-05 1.8463381e-05 -2.9239987e-07 
1.4007242e-05 1.5699296e-05 -1.0614916e-07 
1.5326857e-05 1.8235009e-05 -1.8263228e-07 
9.7050397e-06 1.2415194e-05 -3.5850920e-07 
1.0482615e-05 1.1460099e-05 -1.6130944e-07 
1.6425165e-05 2.1078422e-05 -3.3009999e-07 
1.1517577e-05 1.5187852e-05 -3.9449154e-07 
1.3034329e-05 1.4122409e-05 -8.2367322e-08 
9.1977108e-06 1.0934539e-05 -2.7890323e-07 
1.0399909e-05 1.3789782e-05 -4.0233328e-07 
1.1916430e-05 1.2667854e-05 -9.0482736e-08 
9.5624964e-06 1.2237210e-05 -3.5838764e-07 
1.0347009e-05 1.1271789e-05 -1.6286279e-07 
1.2925032e-05 1.6465730e-05 -3.3439304e-07 
1.4038307e-05 1.5802154e-05 -1.1244552e-07 
9.0569429e-06 1.0746740e-05 -2.7885352e-07 
1.1362366e-05 1.4999747e-05 -3.9401777e-07 
1.2897853e-05 1.3923421e-05 -8.2512088e-08 
1.6252996e-05 2.0847150e-05 -3.2811215e-07 
1.0223109e-05 1.3581765e-05 -4.0194729e-07 
9.4203742e-06 1.2062020e-05 -3.5769060e-07 
1.0212273e-05 1.1084079e-05 -1.6246233e-07 
1.1762092e-05 1.2443081e-05 -9.0503093e-08 
1.4536306e-05 1.8191107e-05 -2.9038483e-07 
1.2567692e-05 1.6091690e-05 -3.4407688e-07 
1.5121716e-05 1.7986884e-05 -1.8605490e-07 
1.3765095e-05 1.5356847e-05 -1.0679344e-07 
8.9194136e-06 1.0557101e-05 -2.7827863e-07 
1.1208527e-05 1.4811959e-05 -3.9429003e-07 
1.2760631e-05 1.3724112e-05 -8.3060641e-08 
9.2799173e-06 1.1885792e-05 -3.5834807e-07 
1.0080283e-05 1.0898106e-05 -1.6382641e-07 
1.0047302e-05 1.3371839e-05 -4.0353808e-07 
1.1606728e-05 1.2219099e-05 -9.1975117e-08 
1.6084301e-05 2.0619151e-05 -3.2690863e-07 
8.7814105e-06 1.0372510e-05 -2.7808017e-07 
1.2676533e-05 1.6130285e-05 -3.3199740e-07 
1.3800974e-05 1.5471152e-05 -1.1519553e-07 
9.1405482e-06 1.1712705e-05 -3.5884651e-07 
9.9487370e-06 1.0714205e-05 -1.6391047e-07 
1.1054338e-05 1.4621392e-05 -3.9374476e-07 
1.2625382e-05 1.3526333e-05 -8.4403197e-08 
8.6471919e-06 1.0186724e-05 -2.7761979e-07 
9.8714172e-06 1.3162283e-05 -4.0205742e-07 
1.1450640e-05 1.1993138e-05 -9.2724612e-08 
1.4344400e-05 1.7924658e-05 -2.8865929e-07 
1.4921733e-05 1.7745844e-05 -1.8904680e-07 
1.2554707e-05 1.5962403e-05 -3.2913283e-07 
1.5922296e-05 2.0398125e-05 -3.2542357e-07 
9.0049407e-06 1.1541088e-05 -3.5820085e-07 
9.8200862e-06 1.0533325e-05 -1.6638514e-07 
1.3682833e-05 1.5309484e-05 -1.1537288e-07 
1.0902944e-05 1.4433955e-05 -3.9227962e-07 
1.2489692e-05 1.3327806e-05 -8.6198128e-08 
8.5125657e-06 1.0006869e-05 -2.7734316e-07 
9.6943968e-06 1.2951063e-05 -4.0168240e-07 
1.1298203e-05 1.1768817e-05 -9.4949556e-08 
8.8701318e-06 1.1374785e-05 -3.5681703e-07 
9.6921949e-06 1.0354391e-05 -1.6623964e-07 
1.2435941e-05 1.5796439e-05 -3.2713197e-07 
1.0648188e-05 1.1985940e-05 -1.9658577e-07 
1.3568077e-05 1.5150070e-05 -1.1829993e-07 
8.3811528e-06 9.8255759e-06 -2.7612987e-07 
1.5761283e-05 2.0174415e-05 -3.2320403e-07 
1.4043146e-05 1.7525643e-05 -2.8794051e-07 
1.0753160e-05 1.4246629e-05 -3.8895831e-07 
1.4618164e-05 1.7245977e-05 -1.8164306e-07 
1.2356970e-05 1.3134526e-05 -8.7900574e-08 
8.7362014e-06 1.1206481e-05 -3.5445396e-07 
9.5657533e-06 1.0176860e-05 -1.6724873e-07 
9.5240621e-06 1.2745189e-05 -3.9843871e-07 
1.1144355e-05 1.1547912e-05 -9.9059946e-08 
8.2511378e-06 9.6507620e-06 -2.7588356e-07 
1.2321169e-05 1.5634374e-05 -3.2629339e-07 
1.3455179e-05 1.4993354e-05 -1.1960769e-07 
1.0606941e-05 1.4062670e-05 -3.8777137e-07 
8.6075152e-06 1.1043880e-05 -3.5308972e-07 
9.4446423e-06 1.0004817e-05 -1.6844059e-07 
1.2224867e-05 1.2942072e-05 -8.8644043e-08 
1.5602776e-05 1.9959447e-05 -3.2307469e-07 
9.3515555e-06 1.2538798e-05 -3.9802998e-07 
8.1249382e-06 9.4782881e-06 -2.7500337e-07 
1.4755945e-05 1.7659231e-05 -2.0805039e-07 
1.4376333e-05 1.7930945e-05 -2.8476799e-07 
1.0993016e-05 1.1327500e-05 -1.0010735e-07 
1.2209621e-05 1.5475718e-05 -3.2289333e-07 
1.3344078e-05 1.4839720e-05 -1.2260921e-07 
8.4802150e-06 1.0883733e-05 -3.5239364e-07 
9.3242552e-06 9.8355495e-06 -1.6972952e-07 
1.0462550e-05 1.3879403e-05 -3.8628403e-07 
1.2096842e-05 1.2752339e-05 -9.0889365e-08 
7.9996298e-06 9.3081344e-06 -2.7391633e-07 
1.5452542e-05 1.9747100e-05 -3.1884085e-07 
9.1802476e-06 1.2332608e-05 -3.9736400e-07 
1.0843690e-05 1.1107987e-05 -1.0178849e-07 
8.3527657e-06 1.0725181e-05 -3.5157134e-07 
9.2030896e-06 9.6674166e-06 -1.7096748e-07 
1.4613041e-05 1.7458120e-05 -2.0824228e-07 
1.4234702e-05 1.7733026e-05 -2.8300840e-07 
1.2086790e-05 1.5304993e-05 -3.1936523e-07 
1.3218570e-05 1.4660598e-05 -1.2476683e-07 
9.7803922e-06 1.1271544e-05 -2.3701307e-07 
7.8780413e-06 9.1401389e-06 -2.7279481e-07 
1.0298581e-05 1.3677692e-05 -3.8440240e-07 
1.1942289e-05 1.2523667e-05 -9.4959432e-08 
8.2225970e-06 1.0547377e-05 -3.4818865e-07 
9.0708681e-06 9.4943289e-06 -1.7475968e-07 
9.0176627e-06 1.2132923e-05 -3.9270918e-07 
1.5310325e-05 1.9544861e-05 -3.1413231e-07 
1.0698690e-05 1.0898974e-05 -1.0621805e-07 
7.7601271e-06 8.9835430e-06 -2.7296068e-07 
1.1884114e-05 1.5059583e-05 -3.1951618e-07 
1.3040177e-05 1.4377605e-05 -1.2386245e-07 
1.4482580e-05 1.7275852e-05 -2.0705377e-07 
1.4106455e-05 1.7551447e-05 -2.7948815e-07 
9.5973792e-06 1.1030183e-05 -2.3823425e-07 
8.0997406e-06 1.0379961e-05 -3.4391675e-07 
1.0109319e-05 1.3451168e-05 -3.8141584e-07 
8.9438336e-06 9.3275139e-06 -1.7645999e-07 
1.1782299e-05 1.2285150e-05 -9.7771860e-08 
7.6500619e-06 8.8287998e-06 -2.7117923e-07 
8.8668558e-06 1.1946518e-05 -3.8947391e-07 
1.0562572e-05 1.0703422e-05 -1.1003223e-07 
1.5174251e-05 1.9347506e-05 -3.1005126e-07 
1.1662425e-05 1.4804285e-05 -3.2195359e-07 
1.2866889e-05 1.4100590e-05 -1.2437856e-07 
7.9780766e-06 1.0214938e-05 -3.4315360e-07 
8.8206471e-06 9.1671882e-06 -1.7901843e-07 
1.3455751e-05 1.6705229e-05 -2.8009723e-07 
1.4021812e-05 1.6397484e-05 -1.8418561e-07 
9.9317740e-06 1.3238028e-05 -3.7951739e-07 
1.1630851e-05 1.2056916e-05 -9.9502316e-08 
9.3993740e-06 1.0760952e-05 -2.3730368e-07 
7.5425123e-06 8.6824393e-06 -2.7129019e-07 
1.0434719e-05 1.0515748e-05 -1.1197727e-07 
8.7219560e-06 1.1766638e-05 -3.8599342e-07 
7.8645280e-06 1.0056428e-05 -3.4140785e-07 
8.7020971e-06 9.0133344e-06 -1.8096735e-07 
1.2701147e-05 1.3835153e-05 -1.2357442e-07 
1.1452044e-05 1.4561376e-05 -3.2472661e-07 
1.5045925e-05 1.9163204e-05 -3.0799745e-07 
7.4359200e-06 8.5399161e-06 -2.7150102e-07 
1.1485744e-05 1.1840611e-05 -1.0080441e-07 
9.7620496e-06 1.3036402e-05 -3.7821991e-07 
1.3874563e-05 1.7220234e-05 -2.7875961e-07 
1.3940239e-05 1.6313446e-05 -1.9144417e-07 
7.7513459e-06 9.9015842e-06 -3.3799500e-07 
8.5330166e-06 8.8214465e-06 -1.8395673e-07 
1.0316237e-05 1.0336435e-05 -1.1181957e-07 
8.5855163e-06 1.1602150e-05 -3.8520676e-07 
8.9186733e-06 1.0255454e-05 -2.4787533e-07 
7.3348046e-06 8.3971991e-06 -2.6912292e-07 
1.2540821e-05 1.3581896e-05 -1.2608031e-07 
1.1832843e-05 1.4852858e-05 -3.0669631e-07 
1.1347126e-05 1.1636241e-05 -1.0594600e-07 
9.6031890e-06 1.2842756e-05 -3.7652620e-07 
7.6425804e-06 9.7499797e-06 -3.3445903e-07 
1.4930699e-05 1.8994973e-05 -3.0599855e-07 
8.4738676e-06 8.7124035e-06 -1.8348295e-07 
9.5526020e-06 1.0774584e-05 -2.2352748e-07 
1.3829777e-05 1.6148837e-05 -1.8876237e-07 
7.2372918e-06 8.2639835e-06 -2.6857990e-07 
1.0197738e-05 1.0169681e-05 -1.1827436e-07 
8.4568255e-06 1.1439499e-05 -3.8053258e-07 
1.3767788e-05 1.7063814e-05 -2.7519187e-07 
1.2389340e-05 1.3340887e-05 -1.2465836e-07 
1.1062551e-05 1.4107630e-05 -3.2292206e-07 
7.5389794e-06 9.6061312e-06 -3.3352663e-07 
8.3682844e-06 8.5726761e-06 -1.8593752e-07 
1.1217955e-05 1.1442333e-05 -1.0728495e-07 
9.4532306e-06 1.2658512e-05 -3.7261776e-07 
8.9604300e-06 9.8968258e-06 -2.1969620e-07 
7.1436880e-06 8.1355402e-06 -2.6879528e-07 
1.4821703e-05 1.8834608e-05 -3.0676460e-07 
1.0090656e-05 1.0008832e-05 -1.1922155e-07 
8.3349332e-06 1.1288275e-05 -3.7725815e-07 
1.3484979e-05 1.5479751e-05 -1.7415803e-07 
1.2713193e-05 1.5726555e-05 -2.8020639e-07 
7.4393329e-06 9.4661127e-06 -3.3147953e-07 
1.2247058e-05 1.3111492e-05 -1.2435024e-07 
8.5574220e-06 8.6400169e-06 -1.7289986e-07 
1.0884990e-05 1.3902013e-05 -3.2393231e-07 
7.0517981e-06 8.0097943e-06 -2.6873687e-07 
1.1095032e-05 1.1256484e-05 -1.0871707e-07 
9.3102781e-06 1.2486681e-05 -3.6897606e-07 
8.1646058e-06 8.3054974e-06 -1.8995772e-07 
7.2817497e-06 9.1686579e-06 -3.2487009e-07 
9.9903864e-06 9.8580131e-06 -1.2251252e-07 
8.2201441e-06 1.1144290e-05 -3.7502548e-07 
1.4721156e-05 1.8678067e-05 -3.0433341e-07 
8.5910151e-06 9.9977142e-06 -2.6117181e-07 
1.2112571e-05 1.2894504e-05 -1.2535538e-07 
1.0712856e-05 1.3702877e-05 -3.2433496e-07 
6.9637931e-06 7.8928497e-06 -2.6935584e-07 
1.0976426e-05 1.1083866e-05 -1.1266116e-07 
1.3580803e-05 1.6775410e-05 -2.7424565e-07 
1.3944854e-05 1.6502903e-05 -2.1048785e-07 
8.3981195e-06 8.4229114e-06 -1.7821522e-07 
9.1745133e-06 1.2319114e-05 -3.6471175e-07 
7.3367892e-06 9.4195148e-06 -3.3358390e-07 
1.2938408e-05 1.4434731e-05 -1.5480506e-07 
1.2053030e-05 1.4938195e-05 -2.8556764e-07 
9.8913179e-06 9.7166603e-06 -1.2750067e-07 
8.1178932e-06 1.1007158e-05 -3.6827720e-07 
6.8819545e-06 7.7796722e-06 -2.6783530e-07 
1.1983419e-05 1.2687435e-05 -1.2464041e-07 
1.0553006e-05 1.3518088e-05 -3.2347543e-07 
1.4615664e-05 1.8510955e-05 -3.0088108e-07 
8.4356379e-06 8.3968125e-06 -1.7335006e-07 
7.2526273e-06 9.3185145e-06 -3.3124340e-07 
1.0866878e-05 1.0915988e-05 -1.1505249e-07 
9.0496133e-06 1.2163285e-05 -3.6336709e-07 
6.8040663e-06 7.6678280e-06 -2.6724337e-07 
1.3491359e-05 1.6634978e-05 -2.7197615e-07 
1.3851442e-05 1.6364676e-05 -2.1121160e-07 
9.8013234e-06 9.5787836e-06 -1.2802042e-07 
8.0199261e-06 1.0882126e-05 -3.6605417e-07 
1.1859880e-05 1.2487572e-05 -1.2586418e-07 
7.1469922e-06 9.1498814e-06 -3.2896955e-07 
1.0153964e-05 1.3127102e-05 -3.3195732e-07 
1.2757027e-05 1.4135630e-05 -1.5494079e-07 
8.3281921e-06 8.2488623e-06 -1.7690985e-07 
1.0760458e-05 1.0757679e-05 -1.1884099e-07 
8.9333944e-06 1.2013303e-05 -3.6053211e-07 
6.7256583e-06 7.5614939e-06 -2.6641067e-07 
1.4523367e-05 1.8356854e-05 -2.9568204e-07 
8.2442248e-06 9.4845545e-06 -2.5802461e-07 
9.7158818e-06 9.4528677e-06 -1.2945654e-07 
1.1980718e-05 1.4779586e-05 -2.7981224e-07 
6.9569060e-06 8.7207081e-06 -3.1524374e-07 
7.9264018e-06 1.0756868e-05 -3.6318497e-07 
7.8036283e-06 7.8343646e-06 -1.9650463e-07 
1.1742627e-05 1.2299224e-05 -1.2621022e-07 
1.3412871e-05 1.6505595e-05 -2.6668590e-07 
1.3770314e-05 1.6237265e-05 -2.0728683e-07 
1.0256045e-05 1.3166851e-05 -3.2392586e-07 
8.5874299e-06 8.4093599e-06 -1.6707278e-07 
6.6517264e-06 7.4609857e-06 -2.6604394e-07 
1.0662051e-05 1.0609179e-05 -1.1998354e-07 
8.8208517e-06 1.1871309e-05 -3.5734371e-07 
7.6923861e-06 7.7167842e-06 -1.9960493e-07 
6.9211860e-06 8.7248191e-06 -3.1607217e-07 
9.6356898e-06 9.3294657e-06 -1.3210850e-07 
7.8386583e-06 1.0644214e-05 -3.5803527e-07 
1.4437405e-05 1.8216317e-05 -2.9244018e-07 
1.1629658e-05 1.2118515e-05 -1.2724087e-07 
6.5825975e-06 7.3626229e-06 -2.6547661e-07 
9.8847868e-06 1.2802367e-05 -3.2961751e-07 
8.2113838e-06 8.0464406e-06 -1.7723482e-07 
1.2690868e-05 1.4057581e-05 -1.5896829e-07 
1.0565866e-05 1.0465201e-05 -1.2219307e-07 
9.1972524e-06 1.0099027e-05 -2.1574823e-07 
6.9648768e-06 8.9288797e-06 -3.2383258e-07 
1.3343340e-05 1.6387046e-05 -2.6770218e-07 
8.7164535e-06 1.1735704e-05 -3.5551335e-07 
1.3698137e-05 1.6121101e-05 -2.0965538e-07 
9.5578780e-06 9.2175760e-06 -1.3794963e-07 
1.1659758e-05 1.4369150e-05 -2.7937108e-07 