# vtk DataFile Version 4.0
vtk output
ASCII
DATASET UNSTRUCTURED_GRID
POINTS 4496 float
-4.3633327e-01 9.6409470e-01 4.4200001e+01 
-4.3633258e-01 9.6409065e-01 4.4074627e+01 
-3.2152572e-01 9.1279918e-01 4.4200001e+01 
-3.8534868e-01 8.4052670e-01 4.4200001e+01 
-3.9589554e-01 8.5545403e-01 4.4010014e+01 
-3.2616228e-01 9.1667932e-01 4.4011734e+01 
-4.3633190e-01 9.6408653e-01 4.3948376e+01 
-2.1293370e-01 8.4677851e-01 4.4200001e+01 
-2.9042658e-01 7.3813015e-01 4.4200001e+01 
-2.1010752e-01 8.4669363e-01 4.4073502e+01 
-2.8908840e-01 7.3604190e-01 4.4072292e+01 
-3.9589015e-01 8.5505831e-01 4.3883316e+01 
-3.2487559e-01 9.1697580e-01 4.3885036e+01 
-2.0722924e-01 8.4660655e-01 4.3944645e+01 
-1.1981077e-01 7.7773046e-01 4.4200001e+01 
-2.8772619e-01 7.3391593e-01 4.3942276e+01 
-4.3633121e-01 9.6408242e-01 4.3821228e+01 
-1.9739023e-01 6.6468561e-01 4.4200001e+01 
-2.9444304e-01 7.8727525e-01 4.3879974e+01 
-8.7554991e-02 7.5255024e-01 4.4042213e+01 
-1.6445170e-01 6.4084798e-01 4.4041008e+01 
-3.2357255e-01 9.1726828e-01 4.3757431e+01 
-3.9587301e-01 8.5463828e-01 4.3755711e+01 
-2.0429766e-01 8.4651643e-01 4.3813354e+01 
-2.8633916e-01 7.3175091e-01 4.3809875e+01 
-2.6899619e-02 6.8901783e-01 4.4200001e+01 
-1.0567340e-01 7.7152997e-01 4.3875790e+01 
-4.3633053e-01 9.6407831e-01 4.3693161e+01 
-8.7133333e-02 5.9509218e-01 4.4200001e+01 
-1.8777622e-01 6.5475601e-01 4.3873402e+01 
-2.0131156e-01 8.4642249e-01 4.3679543e+01 
-3.2225290e-01 9.1755641e-01 4.3628902e+01 
-3.9584404e-01 8.5419410e-01 4.3627178e+01 
-1.0114321e-03 6.6670936e-01 4.3939713e+01 
-2.8492665e-01 7.2954547e-01 4.3675007e+01 
-1.0131179e-01 7.7015632e-01 4.3743176e+01 
-6.0682178e-02 5.7631296e-01 4.3938457e+01 
3.9444737e-02 6.2338209e-01 4.4053139e+01 
-1.8470748e-01 6.5131217e-01 4.3739727e+01 
-7.0938184e-03 5.4737431e-01 4.4052326e+01 
-4.3632981e-01 9.6407413e-01 4.3564159e+01 
7.6947339e-02 5.8804804e-01 4.4200001e+01 
-1.2721874e-02 6.8194175e-01 4.3817982e+01 
-7.7214435e-02 5.8474159e-01 4.3819649e+01 
4.0195532e-02 5.2425718e-01 4.4200001e+01 
-1.9826968e-01 8.4632379e-01 4.3543118e+01 
-9.6842363e-02 7.6872379e-01 4.3607994e+01 
-3.2091641e-01 9.1783977e-01 4.3499420e+01 
-3.9580306e-01 8.5372573e-01 4.3497700e+01 
-2.8348783e-01 7.2729832e-01 4.3537586e+01 
-1.8155001e-01 6.4778340e-01 4.3603539e+01 
1.5678726e-01 5.2239102e-01 4.4060219e+01 
1.0298219e-02 6.6009766e-01 4.3674484e+01 
1.3250886e-01 4.7546524e-01 4.4058990e+01 
-4.3632913e-01 9.6407002e-01 4.3434200e+01 
-5.0139543e-02 5.6696451e-01 4.3671154e+01 
1.3504514e-01 5.4209155e-01 4.3856747e+01 
1.0361936e-01 4.8715758e-01 4.3855240e+01 
2.0846681e-01 4.8028421e-01 4.4200001e+01 
1.9279444e-01 4.4799727e-01 4.4200001e+01 
-9.2261828e-02 7.6722860e-01 4.3470158e+01 
-1.4701239e-03 6.7547697e-01 4.3552124e+01 
-1.9517080e-01 8.4621930e-01 4.3403992e+01 
-3.1956279e-01 9.1811794e-01 4.3368977e+01 
-3.9574999e-01 8.5323322e-01 4.3367252e+01 
-1.7830023e-01 6.4416617e-01 4.3464752e+01 
-6.7131944e-02 5.7555372e-01 4.3547829e+01 
-2.8202194e-01 7.2500783e-01 4.3397518e+01 
-4.3632844e-01 9.6406585e-01 4.3303261e+01 
1.5138821e-01 5.3037512e-01 4.3609200e+01 
1.2119007e-01 4.7490793e-01 4.3606068e+01 
-8.7566733e-02 7.6566672e-01 4.3329563e+01 
-1.7495437e-01 6.4045686e-01 4.3323273e+01 
-3.1819177e-01 9.1839045e-01 4.3237537e+01 
-3.9568463e-01 8.5271639e-01 4.3235813e+01 
2.2269404e-02 6.5294570e-01 4.3398811e+01 
-1.9201367e-01 8.4610778e-01 4.3262066e+01 
-3.8899176e-02 5.5709696e-01 4.3393635e+01 
-2.8052819e-01 7.2267252e-01 4.3254715e+01 
3.7877345e-01 3.8273901e-01 4.4200001e+01 
-4.3632776e-01 9.6406174e-01 4.3171322e+01 
3.9241230e-01 3.7329337e-01 4.3965439e+01 
1.0283732e-02 6.6872352e-01 4.3271511e+01 
-5.6385640e-02 5.6585240e-01 4.3265472e+01 
-8.2753494e-02 7.6403379e-01 4.3186119e+01 
-4.0345609e-01 8.6371827e-01 4.3104889e+01 
-3.1680310e-01 9.1865683e-01 4.3105087e+01 
-1.7150842e-01 6.3665158e-01 4.3179005e+01 
-1.8879703e-01 8.4598809e-01 4.3117241e+01 
-2.7900568e-01 7.2029078e-01 4.3109074e+01 
4.0610775e-01 3.6380205e-01 4.3729839e+01 
1.6776134e-01 5.1882964e-01 4.3331150e+01 
-4.3632707e-01 9.6405768e-01 4.3038357e+01 
1.4031014e-01 4.6124566e-01 4.3307755e+01 
3.4952711e-02 6.4519531e-01 4.3111935e+01 
-7.7818394e-02 7.6232505e-01 4.3039719e+01 
-3.1539652e-01 9.1891652e-01 4.2971603e+01 
-3.9551663e-01 8.5160977e-01 4.2969879e+01 
-2.6899155e-02 5.4666573e-01 4.3105160e+01 
-1.6795819e-01 6.3274628e-01 4.3031849e+01 
-1.8551964e-01 8.4585863e-01 4.2969406e+01 
4.1985780e-01 3.5425979e-01 4.3493168e+01 
-2.7745360e-01 7.1786088e-01 4.2960495e+01 
-4.3632638e-01 9.6405357e-01 4.2904346e+01 
2.2723136e-02 6.6139150e-01 4.2979332e+01 
-4.4916678e-02 5.5559248e-01 4.2971806e+01 
-3.1397179e-01 9.1916907e-01 4.2837063e+01 
-3.9541367e-01 8.5101974e-01 4.2835335e+01 
-7.2757579e-02 7.6053542e-01 4.2890255e+01 
-1.6429928e-01 6.2873662e-01 4.2881699e+01 
1.8463810e-01 5.0694346e-01 4.3035332e+01 
-1.8218029e-01 8.4571803e-01 4.2818455e+01 
1.5503895e-01 4.5003417e-01 4.3027725e+01 
-2.7587104e-01 7.1538109e-01 4.2808868e+01 
4.3366045e-01 3.4466109e-01 4.3255390e+01 
-4.3632573e-01 9.6404958e-01 4.2769268e+01 
-3.8429454e-01 8.3484912e-01 4.2710606e+01 
-3.1252861e-01 9.1941386e-01 4.2701439e+01 
4.8404284e-02 6.3678014e-01 4.2813030e+01 
-1.4070326e-02 5.3562075e-01 4.2804932e+01 
-6.7567028e-02 7.5865942e-01 4.2737610e+01 
-1.6052702e-01 6.2461799e-01 4.2728443e+01 
-1.7877772e-01 8.4556442e-01 4.2664265e+01 
-4.3632504e-01 9.6404558e-01 4.2633099e+01 
-2.7425703e-01 7.1284944e-01 4.2654083e+01 
4.4751364e-01 3.3500037e-01 4.3016472e+01 
3.5901129e-02 6.5341437e-01 4.2674721e+01 
-3.7959340e-01 8.2794034e-01 4.2568317e+01 
-3.1106678e-01 9.1965032e-01 4.2564713e+01 
-3.2659348e-02 5.4472327e-01 4.2665997e+01 
2.0396979e-01 4.9291667e-01 4.2740131e+01 
-6.2242586e-02 7.5669110e-01 4.2581669e+01 
1.7765003e-01 4.3475360e-01 4.2732578e+01 
-1.5663649e-01 6.2038553e-01 4.2571964e+01 
-4.3632439e-01 9.6404165e-01 4.2495808e+01 
-1.7531081e-01 8.4539592e-01 4.2506718e+01 
-2.7261066e-01 7.1026409e-01 4.2496017e+01 
-3.0958602e-01 9.1987789e-01 4.2426853e+01 
-3.7859210e-01 8.2613736e-01 4.2421188e+01 
4.6141517e-01 3.2527190e-01 4.2776375e+01 
6.2686495e-02 6.2762415e-01 4.2501175e+01 
-3.3570320e-04 5.2390522e-01 4.2492062e+01 
-5.6779940e-02 7.5462401e-01 4.2422298e+01 
-4.3632373e-01 9.6403772e-01 4.2357380e+01 
-1.5262254e-01 6.1603409e-01 4.2412144e+01 
-1.7177837e-01 8.4521037e-01 4.2345684e+01 
-2.7093092e-01 7.0762289e-01 4.2334549e+01 
-3.0808610e-01 9.2009580e-01 4.2287842e+01 
-3.8275370e-01 8.3137155e-01 4.2275047e+01 
4.9876589e-02 6.4471585e-01 4.2356720e+01 
-1.9539909e-02 5.3318781e-01 4.2347118e+01 
-4.3632311e-01 9.6403396e-01 4.2217781e+01 
2.1959943e-01 4.8236796e-01 4.2385345e+01 
-5.1174615e-02 7.5245124e-01 4.2259373e+01 
1.9034323e-01 4.2346162e-01 4.2378918e+01 
-1.4847966e-01 6.1155808e-01 4.2248856e+01 
4.7536272e-01 3.1546980e-01 4.2535065e+01 
-1.6817927e-01 8.4500539e-01 4.2181026e+01 
-2.6921678e-01 7.0492369e-01 4.2169544e+01 
-3.0656675e-01 9.2030340e-01 4.2147648e+01 
-3.9470181e-01 8.4769493e-01 4.2145920e+01 
7.7868804e-02 6.1763972e-01 4.2175373e+01 
-4.3632248e-01 9.6403021e-01 4.2076988e+01 
1.4390758e-02 5.1145434e-01 4.2165581e+01 
-4.5421973e-02 7.5016522e-01 4.2092751e+01 
-1.4420210e-01 6.0695171e-01 4.2081959e+01 
-3.0502778e-01 9.2049998e-01 4.2006248e+01 
-4.0175444e-01 8.5747409e-01 4.2004128e+01 
-1.6451253e-01 8.4477836e-01 4.2012604e+01 
4.8935395e-01 3.0558801e-01 4.2292507e+01 
-2.6746723e-01 7.0216429e-01 4.2000870e+01 
6.4714879e-02 6.3520777e-01 4.2024277e+01 
-4.3632188e-01 9.6402657e-01 4.1934975e+01 
-5.4755262e-03 5.2092212e-01 4.2014156e+01 
-2.3078828e-01 8.1064087e-01 4.1931458e+01 
2.3550548e-01 4.7116494e-01 4.2073269e+01 
2.0610523e-01 4.1123796e-01 4.2066772e+01 
-3.9517213e-02 7.4775779e-01 4.1922287e+01 
-1.3978374e-01 6.0220873e-01 4.1911320e+01 
-3.0346894e-01 9.2068475e-01 4.1863613e+01 
-3.9432141e-01 8.4618556e-01 4.1861881e+01 
-1.6077711e-01 8.4452641e-01 4.1840263e+01 
-2.6568118e-01 6.9934219e-01 4.1828377e+01 
-4.3632129e-01 9.6402299e-01 4.1791718e+01 
5.0338638e-01 2.9562023e-01 4.2048656e+01 
9.4028555e-02 6.0672593e-01 4.1834507e+01 
3.0205652e-02 4.9819478e-01 4.1824417e+01 
-3.8116732e-01 8.2744831e-01 4.1725647e+01 
-3.0189002e-01 9.2085695e-01 4.1719719e+01 
-3.3455357e-02 7.4522001e-01 4.1747829e+01 
-1.3521814e-01 5.9732240e-01 4.1736786e+01 
-4.3632072e-01 9.6401960e-01 4.1647179e+01 
-1.5697217e-01 8.4424627e-01 4.1663853e+01 
-2.6385748e-01 6.9645494e-01 4.1651920e+01 
8.0488607e-02 6.2478805e-01 4.1676235e+01 
2.6870471e-01 4.4547972e-01 4.1752304e+01 
9.6269641e-03 5.0785345e-01 4.1665993e+01 
2.4764967e-01 3.8646612e-01 4.1743168e+01 
-3.0029076e-01 9.2101562e-01 4.1574532e+01 
-3.9388368e-01 8.4456980e-01 4.1572796e+01 
5.1745731e-01 2.8556010e-01 4.1803486e+01 
-2.7231261e-02 7.4254233e-01 4.1569210e+01 
-1.3049847e-01 5.9228569e-01 4.1558201e+01 
-4.3632016e-01 9.6401632e-01 4.1501339e+01 
-1.5309690e-01 8.4393430e-01 4.1483204e+01 
-2.6199502e-01 6.9349992e-01 4.1471333e+01 
-2.9867104e-01 9.2115986e-01 4.1428024e+01 
-3.9364263e-01 8.4372103e-01 4.1426289e+01 
1.1125199e-01 5.9476525e-01 4.1477348e+01 
4.7217656e-02 4.8404291e-01 4.1467384e+01 
-4.3631962e-01 9.6401310e-01 4.1354160e+01 
-2.0839609e-02 7.3971421e-01 4.1386261e+01 
-1.2561750e-01 5.8709091e-01 4.1375404e+01 
5.3156406e-01 2.7540097e-01 4.1556946e+01 
-1.4915068e-01 8.4358656e-01 4.1298138e+01 
-2.9703063e-01 9.2128879e-01 4.1280167e+01 
-3.9338648e-01 8.4284443e-01 4.1278431e+01 
-2.6009262e-01 6.9047421e-01 4.1286449e+01 
2.9365057e-01 4.2687622e-01 4.1391586e+01 
9.7278498e-02 6.1333776e-01 4.1311302e+01 
2.7470219e-01 3.6807936e-01 4.1382729e+01 
2.5872495e-02 4.9389899e-01 4.1301384e+01 
-4.3631911e-01 9.6401012e-01 4.1205620e+01 
-1.4274905e-02 7.3672432e-01 4.1198803e+01 
-1.2056758e-01 5.8173001e-01 4.1188221e+01 
-2.9536936e-01 9.2140132e-01 4.1130928e+01 
[...]
POINT_DATA 4496
FIELD FieldData 5
DISPLACEMENT 3 4496  float
1.9138132e-01 1.7552154e-01 -1.6127311e-03 
1.9035769e-01 1.7448407e-01 -1.6042289e-03 
1.9142349e-01 1.7561862e-01 -2.1268118e-03 
1.9149052e-01 1.7556813e-01 -1.0077065e-03 
1.8992630e-01 1.7398672e-01 -1.0321053e-03 
1.8988302e-01 1.7405669e-01 -2.1082747e-03 
1.8932693e-01 1.7343937e-01 -1.5956633e-03 
1.9147910e-01 1.7571107e-01 -2.4683692e-03 
1.9157925e-01 1.7565048e-01 -9.3677541e-04 
1.9044623e-01 1.7466660e-01 -2.4822119e-03 
1.9053835e-01 1.7459485e-01 -9.2181296e-04 
1.8889223e-01 1.7293835e-01 -1.0203137e-03 
1.8884832e-01 1.7300935e-01 -2.1126736e-03 
1.8939416e-01 1.7360267e-01 -2.4962912e-03 
1.9153795e-01 1.7579079e-01 -2.6584929e-03 
1.8947865e-01 1.7352018e-01 -9.0659893e-04 
1.8828888e-01 1.7238730e-01 -1.5870280e-03 
1.9164206e-01 1.7573029e-01 -1.0898152e-03 
1.8892233e-01 1.7299721e-01 -1.2886777e-03 
1.9027117e-01 1.7451270e-01 -2.7032350e-03 
1.9036417e-01 1.7444272e-01 -1.1511524e-03 
1.8780626e-01 1.7195457e-01 -2.1170580e-03 
1.8785080e-01 1.7188255e-01 -1.0083817e-03 
1.8832223e-01 1.7251866e-01 -2.5106049e-03 
1.8839952e-01 1.7242581e-01 -8.9110679e-04 
1.9161449e-01 1.7587106e-01 -2.6842945e-03 
1.8889593e-01 1.7311974e-01 -2.7008227e-03 
1.8724346e-01 1.7132773e-01 -1.5783055e-03 
1.9170088e-01 1.7582430e-01 -1.4154001e-03 
1.8898395e-01 1.7303589e-01 -1.0642335e-03 
1.8722977e-01 1.7141387e-01 -2.5251375e-03 
1.8675672e-01 1.7089219e-01 -2.1214853e-03 
1.8680193e-01 1.7081921e-01 -9.9631399e-04 
1.8950836e-01 1.7373921e-01 -2.6938166e-03 
1.8730031e-01 1.7131111e-01 -8.7535445e-04 
1.8781430e-01 1.7202596e-01 -2.7161108e-03 
1.8958126e-01 1.7368244e-01 -1.4586105e-03 
1.9047204e-01 1.7471303e-01 -2.6738588e-03 
1.8789545e-01 1.7193238e-01 -1.0518444e-03 
1.9053525e-01 1.7467031e-01 -1.6649407e-03 
1.8619044e-01 1.7026056e-01 -1.5695308e-03 
1.9170171e-01 1.7596091e-01 -2.6981006e-03 
1.8850113e-01 1.7272149e-01 -2.7158279e-03 
1.8860410e-01 1.7268519e-01 -1.3851892e-03 
1.9176029e-01 1.7593259e-01 -1.8702268e-03 
1.8611608e-01 1.7028759e-01 -2.5398806e-03 
1.8671179e-01 1.7091107e-01 -2.7315971e-03 
1.8569955e-01 1.6982214e-01 -2.1259084e-03 
1.8574539e-01 1.6974814e-01 -9.8403881e-04 
1.8618037e-01 1.7017542e-01 -8.5931423e-04 
1.8678656e-01 1.7080824e-01 -1.0393143e-03 
1.9061661e-01 1.7487265e-01 -2.7982451e-03 
1.8734829e-01 1.7155376e-01 -2.7136353e-03 
1.9064954e-01 1.7484392e-01 -2.2116550e-03 
1.8512975e-01 1.6918556e-01 -1.5606405e-03 
1.8740658e-01 1.7147936e-01 -1.4494609e-03 
1.8893814e-01 1.7316976e-01 -2.7697198e-03 
1.8897615e-01 1.7313312e-01 -2.0584634e-03 
1.9179417e-01 1.7607407e-01 -2.8818608e-03 
1.9182372e-01 1.7606217e-01 -2.4867277e-03 
1.8558773e-01 1.6977437e-01 -2.7472854e-03 
1.8633595e-01 1.7053092e-01 -2.7363002e-03 
1.8498045e-01 1.6913918e-01 -2.5548416e-03 
1.8463457e-01 1.6874422e-01 -2.1303613e-03 
1.8468109e-01 1.6866925e-01 -9.7164867e-04 
1.8565658e-01 1.6966277e-01 -1.0267013e-03 
1.8639249e-01 1.7044449e-01 -1.3733733e-03 
1.8503892e-01 1.6901802e-01 -8.4300945e-04 
1.8406115e-01 1.6810271e-01 -1.5517023e-03 
1.8692663e-01 1.7113471e-01 -2.7896622e-03 
1.8695174e-01 1.7108575e-01 -2.0839435e-03 
1.8444136e-01 1.6861515e-01 -2.7631111e-03 
1.8450476e-01 1.6849525e-01 -1.0139234e-03 
1.8356168e-01 1.6765836e-01 -2.1347855e-03 
1.8360889e-01 1.6758241e-01 -9.5909240e-04 
1.8510363e-01 1.6928266e-01 -2.7336096e-03 
1.8382213e-01 1.6796780e-01 -2.5699756e-03 
1.8514906e-01 1.6919260e-01 -1.4411195e-03 
1.8387531e-01 1.6783819e-01 -8.2641840e-04 
1.9187614e-01 1.7621909e-01 -3.4670767e-03 
1.8298458e-01 1.6701175e-01 -1.5427184e-03 
1.8996859e-01 1.7428896e-01 -3.4845623e-03 
1.8405081e-01 1.6821899e-01 -2.7574117e-03 
1.8409550e-01 1.6811757e-01 -1.3621182e-03 
1.8327194e-01 1.6743259e-01 -2.7790978e-03 
1.8253094e-01 1.6649310e-01 -9.7778451e-04 
1.8248062e-01 1.6656424e-01 -2.1392875e-03 
1.8333046e-01 1.6730499e-01 -1.0010736e-03 
1.8264033e-01 1.6677275e-01 -2.5852728e-03 
1.8268882e-01 1.6663525e-01 -8.0946350e-04 
1.8805246e-01 1.7235014e-01 -3.5020423e-03 
1.8466608e-01 1.6884746e-01 -2.8092021e-03 
1.8189979e-01 1.6591261e-01 -1.5336747e-03 
1.8452734e-01 1.6863322e-01 -2.1071925e-03 
1.8276845e-01 1.6692001e-01 -2.7536242e-03 
1.8207866e-01 1.6622595e-01 -2.7951901e-03 
1.8139149e-01 1.6546197e-01 -2.1436838e-03 
1.8144000e-01 1.6538405e-01 -9.3354215e-04 
1.8280296e-01 1.6681646e-01 -1.4337021e-03 
1.8213275e-01 1.6609117e-01 -9.8804035e-04 
1.8143423e-01 1.6555315e-01 -2.6007236e-03 
1.8612757e-01 1.7040221e-01 -3.5194394e-03 
1.8147852e-01 1.6540828e-01 -7.9229305e-04 
1.8080683e-01 1.6480508e-01 -1.5244475e-03 
1.8167236e-01 1.6581270e-01 -2.7784510e-03 
1.8170720e-01 1.6569857e-01 -1.3515577e-03 
1.8029389e-01 1.6435124e-01 -2.1481530e-03 
1.8034318e-01 1.6427246e-01 -9.2060596e-04 
1.8086068e-01 1.6499439e-01 -2.8113918e-03 
1.8091102e-01 1.6485308e-01 -9.7498856e-04 
1.8226112e-01 1.6641410e-01 -2.8287957e-03 
1.8020298e-01 1.6430815e-01 -2.6162902e-03 
1.8225062e-01 1.6632885e-01 -2.1161076e-03 
1.8024379e-01 1.6415675e-01 -7.7483011e-04 
1.8419383e-01 1.6844548e-01 -3.5368456e-03 
1.7970532e-01 1.6368929e-01 -1.5152110e-03 
1.7934000e-01 1.6325188e-01 -8.6956081e-04 
1.7918786e-01 1.6323216e-01 -2.1524928e-03 
1.8033645e-01 1.6445960e-01 -2.7735105e-03 
1.8036212e-01 1.6434495e-01 -1.4274135e-03 
1.7961709e-01 1.6373712e-01 -2.8276774e-03 
1.7966422e-01 1.6358985e-01 -9.6171076e-04 
1.7894585e-01 1.6303718e-01 -2.6319847e-03 
1.7859532e-01 1.6256487e-01 -1.5058288e-03 
1.7898355e-01 1.6287939e-01 -7.5697218e-04 
1.8225104e-01 1.6647959e-01 -3.5539644e-03 
1.7919402e-01 1.6330567e-01 -2.7992495e-03 
1.7818600e-01 1.6208111e-01 -8.4139273e-04 
1.7807320e-01 1.6210434e-01 -2.1567217e-03 
1.7922120e-01 1.6318133e-01 -1.3418254e-03 
1.7986377e-01 1.6398902e-01 -2.8507961e-03 
1.7834722e-01 1.6245319e-01 -2.8440913e-03 
1.7985444e-01 1.6390710e-01 -2.1549256e-03 
1.7839170e-01 1.6230068e-01 -9.4856205e-04 
1.7747663e-01 1.6143169e-01 -1.4962158e-03 
1.7766166e-01 1.6173898e-01 -2.6478833e-03 
1.7769708e-01 1.6157585e-01 -7.3888717e-04 
1.7694958e-01 1.6096775e-01 -2.1610342e-03 
1.7698854e-01 1.6086788e-01 -8.2504045e-04 
1.8029946e-01 1.6450518e-01 -3.5708165e-03 
1.7780073e-01 1.6189463e-01 -2.7930301e-03 
1.7781994e-01 1.6177158e-01 -1.4223220e-03 
1.7704991e-01 1.6114174e-01 -2.8603445e-03 
1.7634895e-01 1.6028982e-01 -1.4866513e-03 
1.7709236e-01 1.6098465e-01 -9.3513180e-04 
1.7634964e-01 1.6041282e-01 -2.6637481e-03 
1.7638341e-01 1.6024500e-01 -7.2046375e-04 
1.7581715e-01 1.5982237e-01 -2.1652328e-03 
1.7579365e-01 1.5965918e-01 -8.2470872e-04 
1.7660862e-01 1.6069071e-01 -2.8194687e-03 
1.7663081e-01 1.6055918e-01 -1.3330082e-03 
1.7521235e-01 1.5913916e-01 -1.4769854e-03 
1.7697878e-01 1.6107029e-01 -2.8672977e-03 
1.7572427e-01 1.5980189e-01 -2.8765686e-03 
1.7697906e-01 1.6099551e-01 -2.1420708e-03 
1.7576540e-01 1.5964103e-01 -9.2167262e-04 
1.7833824e-01 1.6252105e-01 -3.5872634e-03 
1.7500876e-01 1.5905769e-01 -2.6796628e-03 
1.7504153e-01 1.5888591e-01 -7.0172874e-04 
1.7467572e-01 1.5866815e-01 -2.1693066e-03 
1.7472838e-01 1.5858489e-01 -8.5327664e-04 
1.7515397e-01 1.5921806e-01 -2.8120393e-03 
1.7406662e-01 1.5797931e-01 -1.4673071e-03 
1.7516927e-01 1.5908954e-01 -1.4188312e-03 
1.7436929e-01 1.5843262e-01 -2.8927540e-03 
1.7440999e-01 1.5826872e-01 -9.0797379e-04 
1.7352472e-01 1.5750435e-01 -2.1736459e-03 
1.7356597e-01 1.5741093e-01 -8.6712861e-04 
1.7363794e-01 1.5767260e-01 -2.6955556e-03 
1.7636783e-01 1.6052786e-01 -3.6033839e-03 
1.7367075e-01 1.5749787e-01 -6.8249914e-04 
1.7390873e-01 1.5796091e-01 -2.8389678e-03 
1.7291118e-01 1.5681006e-01 -1.4576586e-03 
1.7392850e-01 1.5782510e-01 -1.3254184e-03 
1.7300992e-01 1.5695220e-01 -1.8691034e-03 
1.7444485e-01 1.5850785e-01 -2.8835016e-03 
1.7444520e-01 1.5843269e-01 -2.1495873e-03 
1.7298396e-01 1.5703307e-01 -2.9088901e-03 
1.7302488e-01 1.5686691e-01 -8.9416705e-04 
1.7236428e-01 1.5633129e-01 -2.1778045e-03 
1.7241825e-01 1.5624626e-01 -8.2553766e-04 
1.7223613e-01 1.5625668e-01 -2.7116102e-03 
1.7226972e-01 1.5607925e-01 -6.6284707e-04 
1.7174624e-01 1.5563121e-01 -1.4476941e-03 
1.7438848e-01 1.5852633e-01 -3.6191652e-03 
1.7238803e-01 1.5642209e-01 -2.8302919e-03 
1.7240232e-01 1.5629137e-01 -1.4169393e-03 
1.7132646e-01 1.5513672e-01 -7.6942280e-04 
1.7119434e-01 1.5514880e-01 -2.1816664e-03 
1.7156689e-01 1.5560159e-01 -2.9249331e-03 
1.7160885e-01 1.5543409e-01 -8.8015775e-04 
1.7057167e-01 1.5444277e-01 -1.4374394e-03 
1.7080216e-01 1.5480831e-01 -2.7275719e-03 
1.7083718e-01 1.5462942e-01 -6.4310344e-04 
1.7108555e-01 1.5510775e-01 -2.8574483e-03 
1.7185301e-01 1.5589017e-01 -2.9207580e-03 
1.7110574e-01 1.5497088e-01 -1.3190693e-03 
1.7183051e-01 1.5580010e-01 -2.2632629e-03 
1.7001438e-01 1.5395661e-01 -2.1855640e-03 
1.7006996e-01 1.5386981e-01 -7.9682132e-04 
1.7240055e-01 1.5651719e-01 -3.6344135e-03 
1.7011714e-01 1.5413743e-01 -2.9407225e-03 
1.7016116e-01 1.5396963e-01 -8.6644560e-04 
1.6938733e-01 1.5324509e-01 -1.4272081e-03 
1.6933475e-01 1.5332678e-01 -2.7432514e-03 
1.6937225e-01 1.5314741e-01 -6.2309473e-04 
1.6882481e-01 1.5275481e-01 -2.1892190e-03 
1.6888101e-01 1.5266752e-01 -7.8246195e-04 
1.6949381e-01 1.5349780e-01 -2.8472347e-03 
1.6951054e-01 1.5336879e-01 -1.4167513e-03 
1.6819289e-01 1.5203786e-01 -1.4171369e-03 
1.6863343e-01 1.5263963e-01 -2.9561135e-03 
1.6868035e-01 1.5247233e-01 -8.5224654e-04 
1.7040239e-01 1.5449783e-01 -3.6487347e-03 
1.6783284e-01 1.5181094e-01 -2.7588278e-03 
1.6762504e-01 1.5154348e-01 -2.1929825e-03 
1.6768163e-01 1.5145509e-01 -7.6770037e-04 
1.6787368e-01 1.5163183e-01 -6.0211186e-04 
1.6893522e-01 1.5294333e-01 -2.9464348e-03 
1.6812989e-01 1.5212211e-01 -2.8744368e-03 
1.6891447e-01 1.5285760e-01 -2.3091312e-03 
1.6815448e-01 1.5198848e-01 -1.3140936e-03 
1.6698827e-01 1.5082008e-01 -1.4067944e-03 
1.6711472e-01 1.5110658e-01 -2.9714990e-03 
1.6716501e-01 1.5094088e-01 -8.3797303e-04 
1.6641475e-01 1.5032132e-01 -2.1967057e-03 
1.6647245e-01 1.5023240e-01 -7.5300602e-04 
1.6629495e-01 1.5025905e-01 -2.7743513e-03 
1.6634020e-01 1.5008157e-01 -5.8119802e-04 
1.6839513e-01 1.5247029e-01 -3.6625641e-03 
1.6577308e-01 1.4959228e-01 -1.3965274e-03 
1.6646184e-01 1.5043598e-01 -2.8628884e-03 
1.6648412e-01 1.5031226e-01 -1.4186526e-03 
1.6519411e-01 1.4908946e-01 -2.2003481e-03 
1.6525222e-01 1.4899944e-01 -7.3804485e-04 
1.6555901e-01 1.4953698e-01 -2.9861284e-03 
1.6561449e-01 1.4937417e-01 -8.2387170e-04 
1.6454744e-01 1.4835410e-01 -1.3857988e-03 
1.6471994e-01 1.4867021e-01 -2.7894166e-03 
1.6477020e-01 1.4849541e-01 -5.5957865e-04 
1.6587768e-01 1.4985725e-01 -2.9736906e-03 
1.6586238e-01 1.4977981e-01 -2.3601681e-03 
1.6489053e-01 1.4885001e-01 -2.8693669e-03 
1.6637889e-01 1.5043466e-01 -3.6757987e-03 
1.6396287e-01 1.4784686e-01 -2.2033537e-03 
1.6402185e-01 1.4775662e-01 -7.2330452e-04 
1.6491720e-01 1.4873119e-01 -1.4203336e-03 
1.6396587e-01 1.4792986e-01 -3.0005062e-03 
1.6402666e-01 1.4777085e-01 -8.0946140e-04 
1.6331111e-01 1.4710616e-01 -1.3753369e-03 
1.6310583e-01 1.4704293e-01 -2.8043331e-03 
1.6316324e-01 1.4687210e-01 -5.3766026e-04 
1.6272102e-01 1.4659487e-01 -2.2064194e-03 
1.6278030e-01 1.4650333e-01 -7.0807873e-04 
1.6328104e-01 1.4722598e-01 -2.8757663e-03 
1.6266099e-01 1.4643779e-01 -1.2549787e-03 
1.6331320e-01 1.4711311e-01 -1.4229146e-03 
1.6206405e-01 1.4584750e-01 -1.3643304e-03 
1.6435172e-01 1.4838791e-01 -3.6878653e-03 
1.6336212e-01 1.4731672e-01 -2.9668994e-03 
1.6233304e-01 1.4628381e-01 -3.0135198e-03 
1.6337501e-01 1.4725998e-01 -2.2685693e-03 
1.6240101e-01 1.4613019e-01 -7.9499430e-04 
1.6146800e-01 1.4533140e-01 -2.2089828e-03 
1.6152807e-01 1.4523971e-01 -6.9272093e-04 
1.6145258e-01 1.4537665e-01 -2.8178650e-03 
1.6151680e-01 1.4521068e-01 -5.1614619e-04 
1.6080600e-01 1.4457867e-01 -1.3537670e-03 
1.6163164e-01 1.4556257e-01 -2.8816755e-03 
1.6167015e-01 1.4545688e-01 -1.4258728e-03 
1.6065979e-01 1.4459763e-01 -3.0265891e-03 
1.6020426e-01 1.4405765e-01 -2.2118320e-03 
1.6026483e-01 1.4396527e-01 -6.7717739e-04 
1.6073544e-01 1.4445046e-01 -7.8018365e-04 
1.6231503e-01 1.4633395e-01 -3.6997611e-03 
1.5975715e-01 1.4366893e-01 -2.8321617e-03 
1.5953663e-01 1.4329858e-01 -1.3428149e-03 
1.6115166e-01 1.4504582e-01 -2.5487463e-03 
1.6111436e-01 1.4506134e-01 -3.0838693e-03 
1.5983029e-01 1.4350960e-01 -4.9291813e-04 
1.5994072e-01 1.4385830e-01 -2.8865621e-03 
1.5998641e-01 1.4376035e-01 -1.4297550e-03 
1.5892868e-01 1.4277282e-01 -2.2146432e-03 
1.5898986e-01 1.4267978e-01 -6.6151109e-04 
1.5894377e-01 1.4286923e-01 -3.0389109e-03 
1.5902889e-01 1.4272994e-01 -7.6551788e-04 
1.5825526e-01 1.4200711e-01 -1.3317071e-03 
1.6026913e-01 1.4427106e-01 -3.7096506e-03 
1.5801778e-01 1.4191802e-01 -2.8459216e-03 
1.5810151e-01 1.4176665e-01 -4.6916597e-04 
1.5764222e-01 1.4147793e-01 -2.2160010e-03 
1.5770379e-01 1.4138384e-01 -6.4624718e-04 
1.5910135e-01 1.4297992e-01 -2.5538097e-03 
1.5906487e-01 1.4299624e-01 -3.0930333e-03 
1.5817913e-01 1.4208391e-01 -2.8909754e-03 
1.5821849e-01 1.4197959e-01 -1.4235657e-03 
1.5732247e-01 1.4108422e-01 -1.4953589e-03 
1.5696447e-01 1.4070699e-01 -1.3201485e-03 
1.5719771e-01 1.4111185e-01 -3.0508679e-03 
1.5730226e-01 1.4098939e-01 -7.3866022e-04 
1.5635541e-01 1.4018165e-01 -2.2054121e-03 
1.5641744e-01 1.4008887e-01 -6.3530332e-04 
1.5626483e-01 1.4015453e-01 -2.8573356e-03 
1.5821388e-01 1.4220035e-01 -3.7185149e-03 
1.5637763e-01 1.4003043e-01 -4.4668620e-04 
1.5568346e-01 1.3941774e-01 -1.3094491e-03 
1.5638573e-01 1.4027922e-01 -2.9000284e-03 
1.5647447e-01 1.4021969e-01 -1.3747269e-03 
1.5704733e-01 1.4091225e-01 -2.5618684e-03 
1.5701172e-01 1.4092919e-01 -3.1023410e-03 
1.5561250e-01 1.3936266e-01 -1.4811970e-03 
1.5507871e-01 1.3889682e-01 -2.1945031e-03 
1.5545882e-01 1.3936277e-01 -3.0625584e-03 
1.5514016e-01 1.3880351e-01 -6.2420586e-04 
1.5559195e-01 1.3926654e-01 -7.0610421e-04 
1.5441224e-01 1.3813828e-01 -1.2979447e-03 
1.5454376e-01 1.3842429e-01 -2.8677166e-03 
1.5468217e-01 1.3832432e-01 -4.2485629e-04 
1.5615883e-01 1.4013132e-01 -3.7262389e-03 
1.5466155e-01 1.3854612e-01 -2.9120215e-03 
1.5477847e-01 1.3850915e-01 -1.3238628e-03 
1.5381067e-01 1.3762094e-01 -2.1838867e-03 
1.5387240e-01 1.3752876e-01 -6.1337207e-04 
1.5489800e-01 1.3879177e-01 -2.9939066e-03 
1.5495257e-01 1.3877608e-01 -2.2650559e-03 
1.5375122e-01 1.3764688e-01 -3.0732537e-03 
1.5390904e-01 1.3757183e-01 -6.7430257e-04 
1.5350011e-01 1.3723777e-01 -1.4618180e-03 
1.5315016e-01 1.3686953e-01 -1.2870178e-03 
1.5301420e-01 1.3664664e-01 -4.0296544e-04 
1.5285242e-01 1.3672520e-01 -2.8769467e-03 
1.5255262e-01 1.3635567e-01 -2.1725339e-03 
1.5261421e-01 1.3626449e-01 -6.0284848e-04 
1.5310916e-01 1.3682732e-01 -1.2743669e-03 
1.5296733e-01 1.3684450e-01 -2.9241070e-03 
1.5410821e-01 1.3806948e-01 -3.7334659e-03 
1.5189715e-01 1.3561067e-01 -1.2765267e-03 
1.5225305e-01 1.3590564e-01 -6.4335775e-04 
1.5207291e-01 1.3596207e-01 -3.0830458e-03 
1.5291506e-01 1.3681097e-01 -3.1196037e-03 
1.5277445e-01 1.3659142e-01 -2.3106411e-03 
1.5130346e-01 1.3510057e-01 -2.1611240e-03 
1.5133919e-01 1.3498501e-01 -6.0557952e-04 
1.5137267e-01 1.3499606e-01 -3.8019376e-04 
1.5119082e-01 1.3505755e-01 -2.8864539e-03 
1.5085028e-01 1.3458018e-01 -1.4892491e-03 
1.5065302e-01 1.3436064e-01 -1.2651897e-03 
1.5146556e-01 1.3517246e-01 -1.2269408e-03 
1.5112036e-01 1.3498609e-01 -2.8917678e-03 
1.5062231e-01 1.3426697e-01 -6.1432068e-04 
1.5042400e-01 1.3430694e-01 -3.0916552e-03 
1.5006265e-01 1.3385385e-01 -2.1489961e-03 
1.5206376e-01 1.3601637e-01 -3.7400837e-03 
1.5012375e-01 1.3376364e-01 -5.8129715e-04 
1.4995545e-01 1.3367461e-01 -1.4077957e-03 
1.5090491e-01 1.3471413e-01 -2.3067794e-03 
1.4941774e-01 1.3312089e-01 -1.2544394e-03 
1.4975537e-01 1.3337320e-01 -3.6064748e-04 
1.4955743e-01 1.3341850e-01 -2.8931664e-03 
1.5087323e-01 1.3476165e-01 -3.1259239e-03 
1.4984807e-01 1.3354596e-01 -1.1799023e-03 
1.4966691e-01 1.3353243e-01 -2.9450634e-03 
1.4883089e-01 1.3261759e-01 -2.1375702e-03 
1.4889210e-01 1.3252792e-01 -5.7075062e-04 
1.4901745e-01 1.3265546e-01 -5.8478967e-04 
1.4880313e-01 1.3268124e-01 -3.0987342e-03 
1.4841905e-01 1.3211386e-01 -1.1933475e-03 
1.4819071e-01 1.3189028e-01 -1.2437216e-03 
1.5002203e-01 1.3396744e-01 -3.7448308e-03 
1.4816383e-01 1.3177636e-01 -3.3911827e-04 
1.4795119e-01 1.3180862e-01 -2.8999178e-03 
1.4903699e-01 1.3281769e-01 -2.0747934e-03 
1.4887793e-01 1.3274062e-01 -2.9346759e-03 
1.4760725e-01 1.3139053e-01 -2.1254709e-03 
1.4825538e-01 1.3194458e-01 -1.1346410e-03 
1.4755256e-01 1.3117786e-01 -4.8671864e-04 
1.4805834e-01 1.3192049e-01 -2.9553969e-03 
1.4697157e-01 1.3066825e-01 -1.2334997e-03 
1.4743653e-01 1.3106860e-01 -5.5545842e-04 
1.4720903e-01 1.3108410e-01 -3.1049314e-03 
1.4645329e-01 1.3008350e-01 -5.5034680e-04 
1.4636998e-01 1.3014171e-01 -2.0270795e-03 
1.4659622e-01 1.3020453e-01 -3.1846866e-04 
1.4637063e-01 1.3022591e-01 -2.9056515e-03 
1.4798418e-01 1.3192312e-01 -3.7475235e-03 
1.4607532e-01 1.2980807e-01 -1.6271486e-03 
1.4668670e-01 1.3036980e-01 -1.0908244e-03 
1.4647560e-01 1.3033529e-01 -2.9651159e-03 
1.4576122e-01 1.2945600e-01 -1.2236162e-03 
1.4587919e-01 1.2950835e-01 -5.2850507e-04 
1.4680143e-01 1.3067840e-01 -3.1341380e-03 
1.4683300e-01 1.3065866e-01 -2.5952957e-03 
1.4541900e-01 1.2904048e-01 -4.6419236e-04 
1.4564005e-01 1.2951224e-01 -3.1097049e-03 
1.4529859e-01 1.2908681e-01 -2.2122157e-03 
1.4633133e-01 1.3007151e-01 -1.7043821e-03 
1.4608338e-01 1.2993489e-01 -2.8865763e-03 
1.4505115e-01 1.2865743e-01 -2.9903336e-04 
1.4481740e-01 1.2867044e-01 -2.9076098e-03 
1.4455965e-01 1.2825269e-01 -1.2132317e-03 
1.4514108e-01 1.2881865e-01 -1.0482718e-03 
1.4491983e-01 1.2877822e-01 -2.9738196e-03 
1.4595000e-01 1.2988433e-01 -3.7480756e-03 
1.4409098e-01 1.2770893e-01 -4.2493417e-04 
1.4397530e-01 1.2776363e-01 -2.2177470e-03 
1.4434527e-01 1.2797062e-01 -5.0169538e-04 
1.4409779e-01 1.2796950e-01 -3.1142333e-03 
1.4336626e-01 1.2705806e-01 -1.2026835e-03 
1.4477246e-01 1.2864712e-01 -3.1355389e-03 
1.4480294e-01 1.2862702e-01 -2.5980808e-03 
1.4352965e-01 1.2713338e-01 -2.7827179e-04 
1.4328858e-01 1.2714209e-01 -2.9109705e-03 
1.4361835e-01 1.2729180e-01 -1.0068128e-03 
1.4269587e-01 1.2648088e-01 -2.1838290e-03 
1.4322694e-01 1.2708844e-01 -3.0125375e-03 
1.4356393e-01 1.2729792e-01 -1.6499400e-03 
1.4257734e-01 1.2619403e-01 -4.0953900e-04 
1.4283341e-01 1.2645710e-01 -4.7551957e-04 
1.4258026e-01 1.2645164e-01 -3.1166072e-03 
1.4218001e-01 1.2587211e-01 -1.1924172e-03 
1.4392214e-01 1.2785365e-01 -3.7465373e-03 
1.4188927e-01 1.2561424e-01 -1.5467417e-03 
1.4202946e-01 1.2563381e-01 -2.5894490e-04 
1.4265695e-01 1.2650649e-01 -2.8809225e-03 
1.4163135e-01 1.2539962e-01 -1.9947516e-03 
1.4178406e-01 1.2563734e-01 -2.9128853e-03 
1.4167523e-01 1.2530294e-01 -5.1123317e-04 
1.4211737e-01 1.2578848e-01 -9.6637278e-04 
1.4274894e-01 1.2662256e-01 -3.1349249e-03 
1.4277875e-01 1.2660208e-01 -2.5985611e-03 
1.4188217e-01 1.2574127e-01 -2.9882588e-03 
1.4120175e-01 1.2481432e-01 -3.3855761e-04 
1.4100215e-01 1.2469500e-01 -1.1825473e-03 
1.4134313e-01 1.2496696e-01 -4.4888651e-04 
1.4108618e-01 1.2495858e-01 -3.1184210e-03 
1.4067787e-01 1.2430812e-01 -5.1635702e-04 
1.4044006e-01 1.2421469e-01 -2.0471374e-03 
1.4055088e-01 1.2415521e-01 -2.3964058e-04 
1.4030254e-01 1.2415822e-01 -2.9139058e-03 
1.4189865e-01 1.2582992e-01 -3.7442406e-03 
1.4063743e-01 1.2430738e-01 -9.2713413e-04 
1.3983189e-01 1.2352607e-01 -1.1722565e-03 
1.4024174e-01 1.2410621e-01 -3.0228363e-03 
1.3969025e-01 1.2330841e-01 -3.6577490e-04 
1.4057836e-01 1.2431889e-01 -1.6899559e-03 
1.3987376e-01 1.2349837e-01 -4.2410119e-04 
1.3967513e-01 1.2337995e-01 -1.2880255e-03 
1.3935132e-01 1.2314258e-01 -2.2020941e-03 
1.4072968e-01 1.2460501e-01 -3.1335901e-03 
1.3961522e-01 1.2348964e-01 -3.1193884e-03 
1.4075871e-01 1.2458432e-01 -2.5986871e-03 
1.3909259e-01 1.2269987e-01 -2.2173696e-04 
1.3969183e-01 1.2354222e-01 -2.8608458e-03 