# vtk DataFile Version 4.0
vtk output
ASCII
DATASET UNSTRUCTURED_GRID
POINTS 4496 float
-4.3633327e-01 9.6409470e-01 4.4200001e+01 
-4.3633258e-01 9.6409065e-01 4.4074627e+01 
-3.2152572e-01 9.1279918e-01 4.4200001e+01 
-3.8534868e-01 8.4052670e-01 4.4200001e+01 
-3.9589554e-01 8.5545403e-01 4.4010014e+01 
-3.2616228e-01 9.1667932e-01 4.4011734e+01 
-4.3633190e-01 9.6408653e-01 4.3948376e+01 
-2.1293370e-01 8.4677851e-01 4.4200001e+01 
-2.9042658e-01 7.3813015e-01 4.4200001e+01 
-2.1010752e-01 8.4669363e-01 4.4073502e+01 
-2.8908840e-01 7.3604190e-01 4.4072292e+01 
-3.9589015e-01 8.5505831e-01 4.3883316e+01 
-3.2487559e-01 9.1697580e-01 4.3885036e+01 
-2.0722924e-01 8.4660655e-01 4.3944645e+01 
-1.1981077e-01 7.7773046e-01 4.4200001e+01 
-2.8772619e-01 7.3391593e-01 4.3942276e+01 
-4.3633121e-01 9.6408242e-01 4.3821228e+01 
-1.9739023e-01 6.6468561e-01 4.4200001e+01 
-2.9444304e-01 7.8727525e-01 4.3879974e+01 
-8.7554991e-02 7.5255024e-01 4.4042213e+01 
-1.6445170e-01 6.4084798e-01 4.4041008e+01 
-3.2357255e-01 9.1726828e-01 4.3757431e+01 
-3.9587301e-01 8.5463828e-01 4.3755711e+01 
-2.0429766e-01 8.4651643e-01 4.3813354e+01 
-2.8633916e-01 7.3175091e-01 4.3809875e+01 
-2.6899619e-02 6.8901783e-01 4.4200001e+01 
-1.0567340e-01 7.7152997e-01 4.3875790e+01 
-4.3633053e-01 9.6407831e-01 4.3693161e+01 
-8.7133333e-02 5.9509218e-01 4.4200001e+01 
-1.8777622e-01 6.5475601e-01 4.3873402e+01 
-2.0131156e-01 8.4642249e-01 4.3679543e+01 
-3.2225290e-01 9.1755641e-01 4.3628902e+01 
-3.9584404e-01 8.5419410e-01 4.3627178e+01 
-1.0114321e-03 6.6670936e-01 4.3939713e+01 
-2.8492665e-01 7.2954547e-01 4.3675007e+01 
-1.0131179e-01 7.7015632e-01 4.3743176e+01 
-6.0682178e-02 5.7631296e-01 4.3938457e+01 
3.9444737e-02 6.2338209e-01 4.4053139e+01 
-1.8470748e-01 6.5131217e-01 4.3739727e+01 
-7.0938184e-03 5.4737431e-01 4.4052326e+01 
-4.3632981e-01 9.6407413e-01 4.3564159e+01 
7.6947339e-02 5.8804804e-01 4.4200001e+01 
-1.2721874e-02 6.8194175e-01 4.3817982e+01 
-7.7214435e-02 5.8474159e-01 4.3819649e+01 
4.0195532e-02 5.2425718e-01 4.4200001e+01 
-1.9826968e-01 8.4632379e-01 4.3543118e+01 
-9.6842363e-02 7.6872379e-01 4.3607994e+01 
-3.2091641e-01 9.1783977e-01 4.3499420e+01 
-3.9580306e-01 8.5372573e-01 4.3497700e+01 
-2.8348783e-01 7.2729832e-01 4.3537586e+01 
-1.8155001e-01 6.4778340e-01 4.3603539e+01 
1.5678726e-01 5.2239102e-01 4.4060219e+01 
1.0298219e-02 6.6009766e-01 4.3674484e+01 
1.3250886e-01 4.7546524e-01 4.4058990e+01 
-4.3632913e-01 9.6407002e-01 4.3434200e+01 
-5.0139543e-02 5.6696451e-01 4.3671154e+01 
1.3504514e-01 5.4209155e-01 4.3856747e+01 
1.0361936e-01 4.8715758e-01 4.3855240e+01 
2.0846681e-01 4.8028421e-01 4.4200001e+01 
1.9279444e-01 4.4799727e-01 4.4200001e+01 
-9.2261828e-02 7.6722860e-01 4.3470158e+01 
-1.4701239e-03 6.7547697e-01 4.3552124e+01 
-1.9517080e-01 8.4621930e-01 4.3403992e+01 
-3.1956279e-01 9.1811794e-01 4.3368977e+01 
-3.9574999e-01 8.5323322e-01 4.3367252e+01 
-1.7830023e-01 6.4416617e-01 4.3464752e+01 
-6.7131944e-02 5.7555372e-01 4.3547829e+01 
-2.8202194e-01 7.2500783e-01 4.3397518e+01 
-4.3632844e-01 9.6406585e-01 4.3303261e+01 
1.5138821e-01 5.3037512e-01 4.3609200e+01 
1.2119007e-01 4.7490793e-01 4.3606068e+01 
-8.7566733e-02 7.6566672e-01 4.3329563e+01 
-1.7495437e-01 6.4045686e-01 4.3323273e+01 
-3.1819177e-01 9.1839045e-01 4.3237537e+01 
-3.9568463e-01 8.5271639e-01 4.3235813e+01 
2.2269404e-02 6.5294570e-01 4.3398811e+01 
-1.9201367e-01 8.4610778e-01 4.3262066e+01 
-3.8899176e-02 5.5709696e-01 4.3393635e+01 
-2.8052819e-01 7.2267252e-01 4.3254715e+01 
3.7877345e-01 3.8273901e-01 4.4200001e+01 
-4.3632776e-01 9.6406174e-01 4.3171322e+01 
3.9241230e-01 3.7329337e-01 4.3965439e+01 
1.0283732e-02 6.6872352e-01 4.3271511e+01 
-5.6385640e-02 5.6585240e-01 4.3265472e+01 
-8.2753494e-02 7.6403379e-01 4.3186119e+01 
-4.0345609e-01 8.6371827e-01 4.3104889e+01 
-3.1680310e-01 9.1865683e-01 4.3105087e+01 
-1.7150842e-01 6.3665158e-01 4.3179005e+01 
-1.8879703e-01 8.4598809e-01 4.3117241e+01 
-2.7900568e-01 7.2029078e-01 4.3109074e+01 
4.0610775e-01 3.6380205e-01 4.3729839e+01 
1.6776134e-01 5.1882964e-01 4.3331150e+01 
-4.3632707e-01 9.6405768e-01 4.3038357e+01 
1.4031014e-01 4.6124566e-01 4.3307755e+01 
3.4952711e-02 6.4519531e-01 4.3111935e+01 
-7.7818394e-02 7.6232505e-01 4.3039719e+01 
-3.1539652e-01 9.1891652e-01 4.2971603e+01 
-3.9551663e-01 8.5160977e-01 4.2969879e+01 
-2.6899155e-02 5.4666573e-01 4.3105160e+01 
-1.6795819e-01 6.3274628e-01 4.3031849e+01 
-1.8551964e-01 8.4585863e-01 4.2969406e+01 
4.1985780e-01 3.5425979e-01 4.3493168e+01 
-2.7745360e-01 7.1786088e-01 4.2960495e+01 
-4.3632638e-01 9.6405357e-01 4.2904346e+01 
2.2723136e-02 6.6139150e-01 4.2979332e+01 
-4.4916678e-02 5.5559248e-01 4.2971806e+01 
-3.1397179e-01 9.1916907e-01 4.2837063e+01 
-3.9541367e-01 8.5101974e-01 4.2835335e+01 
-7.2757579e-02 7.6053542e-01 4.2890255e+01 
-1.6429928e-01 6.2873662e-01 4.2881699e+01 
1.8463810e-01 5.0694346e-01 4.3035332e+01 
-1.8218029e-01 8.4571803e-01 4.2818455e+01 
1.5503895e-01 4.5003417e-01 4.3027725e+01 
-2.7587104e-01 7.1538109e-01 4.2808868e+01 
4.3366045e-01 3.4466109e-01 4.3255390e+01 
-4.3632573e-01 9.6404958e-01 4.2769268e+01 
-3.8429454e-01 8.3484912e-01 4.2710606e+01 
-3.1252861e-01 9.1941386e-01 4.2701439e+01 
4.8404284e-02 6.3678014e-01 4.2813030e+01 
-1.4070326e-02 5.3562075e-01 4.2804932e+01 
-6.7567028e-02 7.5865942e-01 4.2737610e+01 
-1.6052702e-01 6.2461799e-01 4.2728443e+01 
-1.7877772e-01 8.4556442e-01 4.2664265e+01 
-4.3632504e-01 9.6404558e-01 4.2633099e+01 
-2.7425703e-01 7.1284944e-01 4.2654083e+01 
4.4751364e-01 3.3500037e-01 4.3016472e+01 
3.5901129e-02 6.5341437e-01 4.2674721e+01 
-3.7959340e-01 8.2794034e-01 4.2568317e+01 
-3.1106678e-01 9.1965032e-01 4.2564713e+01 
-3.2659348e-02 5.4472327e-01 4.2665997e+01 
2.0396979e-01 4.9291667e-01 4.2740131e+01 
-6.2242586e-02 7.5669110e-01 4.2581669e+01 
1.7765003e-01 4.3475360e-01 4.2732578e+01 
-1.5663649e-01 6.2038553e-01 4.2571964e+01 
-4.3632439e-01 9.6404165e-01 4.2495808e+01 
-1.7531081e-01 8.4539592e-01 4.2506718e+01 
-2.7261066e-01 7.1026409e-01 4.2496017e+01 
-3.0958602e-01 9.1987789e-01 4.2426853e+01 
-3.7859210e-01 8.2613736e-01 4.2421188e+01 
4.6141517e-01 3.2527190e-01 4.2776375e+01 
6.2686495e-02 6.2762415e-01 4.2501175e+01 
-3.3570320e-04 5.2390522e-01 4.2492062e+01 
-5.6779940e-02 7.5462401e-01 4.2422298e+01 
-4.3632373e-01 9.6403772e-01 4.2357380e+01 
-1.5262254e-01 6.1603409e-01 4.2412144e+01 
-1.7177837e-01 8.4521037e-01 4.2345684e+01 
-2.7093092e-01 7.0762289e-01 4.2334549e+01 
-3.0808610e-01 9.2009580e-01 4.2287842e+01 
-3.8275370e-01 8.3137155e-01 4.2275047e+01 
4.9876589e-02 6.4471585e-01 4.2356720e+01 
-1.9539909e-02 5.3318781e-01 4.2347118e+01 
-4.3632311e-01 9.6403396e-01 4.2217781e+01 
2.1959943e-01 4.8236796e-01 4.2385345e+01 
-5.1174615e-02 7.5245124e-01 4.2259373e+01 
1.9034323e-01 4.2346162e-01 4.2378918e+01 
-1.4847966e-01 6.1155808e-01 4.2248856e+01 
4.7536272e-01 3.1546980e-01 4.2535065e+01 
-1.6817927e-01 8.4500539e-01 4.2181026e+01 
-2.6921678e-01 7.0492369e-01 4.2169544e+01 
-3.0656675e-01 9.2030340e-01 4.2147648e+01 
-3.9470181e-01 8.4769493e-01 4.2145920e+01 
7.7868804e-02 6.1763972e-01 4.2175373e+01 
-4.3632248e-01 9.6403021e-01 4.2076988e+01 
1.4390758e-02 5.1145434e-01 4.2165581e+01 
-4.5421973e-02 7.5016522e-01 4.2092751e+01 
-1.4420210e-01 6.0695171e-01 4.2081959e+01 
-3.0502778e-01 9.2049998e-01 4.2006248e+01 
-4.0175444e-01 8.5747409e-01 4.2004128e+01 
-1.6451253e-01 8.4477836e-01 4.2012604e+01 
4.8935395e-01 3.0558801e-01 4.2292507e+01 
-2.6746723e-01 7.0216429e-01 4.2000870e+01 
6.4714879e-02 6.3520777e-01 4.2024277e+01 
-4.3632188e-01 9.6402657e-01 4.1934975e+01 
-5.4755262e-03 5.2092212e-01 4.2014156e+01 
-2.3078828e-01 8.1064087e-01 4.1931458e+01 
2.3550548e-01 4.7116494e-01 4.2073269e+01 
2.0610523e-01 4.1123796e-01 4.2066772e+01 
-3.9517213e-02 7.4775779e-01 4.1922287e+01 
-1.3978374e-01 6.0220873e-01 4.1911320e+01 
-3.0346894e-01 9.2068475e-01 4.1863613e+01 
-3.9432141e-01 8.4618556e-01 4.1861881e+01 
-1.6077711e-01 8.4452641e-01 4.1840263e+01 
-2.6568118e-01 6.9934219e-01 4.1828377e+01 
-4.3632129e-01 9.6402299e-01 4.1791718e+01 
5.0338638e-01 2.9562023e-01 4.2048656e+01 
9.4028555e-02 6.0672593e-01 4.1834507e+01 
3.0205652e-02 4.9819478e-01 4.1824417e+01 
-3.8116732e-01 8.2744831e-01 4.1725647e+01 
-3.0189002e-01 9.2085695e-01 4.1719719e+01 
-3.3455357e-02 7.4522001e-01 4.1747829e+01 
-1.3521814e-01 5.9732240e-01 4.1736786e+01 
-4.3632072e-01 9.6401960e-01 4.1647179e+01 
-1.5697217e-01 8.4424627e-01 4.1663853e+01 
-2.6385748e-01 6.9645494e-01 4.1651920e+01 
8.0488607e-02 6.2478805e-01 4.1676235e+01 
2.6870471e-01 4.4547972e-01 4.1752304e+01 
9.6269641e-03 5.0785345e-01 4.1665993e+01 
2.4764967e-01 3.8646612e-01 4.1743168e+01 
-3.0029076e-01 9.2101562e-01 4.1574532e+01 
-3.9388368e-01 8.4456980e-01 4.1572796e+01 
5.1745731e-01 2.8556010e-01 4.1803486e+01 
-2.7231261e-02 7.4254233e-01 4.1569210e+01 
-1.3049847e-01 5.9228569e-01 4.1558201e+01 
-4.3632016e-01 9.6401632e-01 4.1501339e+01 
-1.5309690e-01 8.4393430e-01 4.1483204e+01 
-2.6199502e-01 6.9349992e-01 4.1471333e+01 
-2.9867104e-01 9.2115986e-01 4.1428024e+01 
-3.9364263e-01 8.4372103e-01 4.1426289e+01 
1.1125199e-01 5.9476525e-01 4.1477348e+01 
4.7217656e-02 4.8404291e-01 4.1467384e+01 
-4.3631962e-01 9.6401310e-01 4.1354160e+01 
-2.0839609e-02 7.3971421e-01 4.1386261e+01 
-1.2561750e-01 5.8709091e-01 4.1375404e+01 
5.3156406e-01 2.7540097e-01 4.1556946e+01 
-1.4915068e-01 8.4358656e-01 4.1298138e+01 
-2.9703063e-01 9.2128879e-01 4.1280167e+01 
-3.9338648e-01 8.4284443e-01 4.1278431e+01 
-2.6009262e-01 6.9047421e-01 4.1286449e+01 
2.9365057e-01 4.2687622e-01 4.1391586e+01 
9.7278498e-02 6.1333776e-01 4.1311302e+01 
2.7470219e-01 3.6807936e-01 4.1382729e+01 
2.5872495e-02 4.9389899e-01 4.1301384e+01 
-4.3631911e-01 9.6401012e-01 4.1205620e+01 
-1.4274905e-02 7.3672432e-01 4.1198803e+01 
-1.2056758e-01 5.8173001e-01 4.1188221e+01 
-2.9536936e-01 9.2140132e-01 4.1130928e+01 
[...]
POINT_DATA 4496
FIELD FieldData 5
DISPLACEMENT 3 4496  float
9.7457550e-02 9.0616472e-02 -6.6302094e-04 
9.6972480e-02 9.0115055e-02 -6.6106440e-04 
9.7492680e-02 9.0695724e-02 -9.0252806e-04 
9.7543918e-02 9.0652496e-02 -3.6656120e-04 
9.6798450e-02 8.9885309e-02 -3.8244738e-04 
9.6761577e-02 8.9939550e-02 -8.9716417e-04 
9.6484035e-02 8.9610167e-02 -6.5909140e-04 
9.7538203e-02 9.0770856e-02 -1.0591300e-03 
9.7615100e-02 9.0718530e-02 -3.2483265e-04 
9.7048797e-02 9.0266861e-02 -1.0677724e-03 
9.7122423e-02 9.0208694e-02 -3.1968800e-04 
9.6308544e-02 8.9378640e-02 -3.7892233e-04 
9.6271195e-02 8.9433745e-02 -9.0136705e-04 
9.6550286e-02 8.9753464e-02 -1.0765644e-03 
9.7585984e-02 9.0835400e-02 -1.1437450e-03 
9.6620850e-02 8.9689672e-02 -3.1446273e-04 
9.5992148e-02 8.9101717e-02 -6.5709953e-04 
9.7665973e-02 9.0783052e-02 -3.9152149e-04 
9.6342400e-02 8.9435458e-02 -5.0075509e-04 
9.6992902e-02 9.0226673e-02 -1.1655587e-03 
9.7067259e-02 9.0169944e-02 -4.2132166e-04 
9.5777348e-02 8.8924348e-02 -9.0556522e-04 
9.5815167e-02 8.8868394e-02 -3.7534858e-04 
9.6042380e-02 8.9230388e-02 -1.0855079e-03 
9.6110076e-02 8.9161143e-02 -3.0914016e-04 
9.7647585e-02 9.0899989e-02 -1.1489452e-03 
9.6335799e-02 8.9548409e-02 -1.1686665e-03 
9.5496804e-02 8.8589661e-02 -6.5507751e-04 
9.7714037e-02 9.0859391e-02 -5.4026587e-04 
9.6409135e-02 8.9483462e-02 -3.8401230e-04 
9.5524766e-02 8.8697284e-02 -1.0945932e-03 
9.5279969e-02 8.8411301e-02 -9.0980669e-04 
9.5318280e-02 8.8354528e-02 -3.7172946e-04 
9.6655898e-02 8.9876801e-02 -1.1559963e-03 
9.5589787e-02 8.8622801e-02 -3.0373235e-04 
9.5823653e-02 8.9020990e-02 -1.1779910e-03 
9.6714959e-02 8.9831561e-02 -5.6357047e-04 
9.7124904e-02 9.0358682e-02 -1.1412308e-03 
9.5894262e-02 8.8950969e-02 -3.8007999e-04 
9.7175524e-02 9.0324096e-02 -6.5715495e-04 
9.4997860e-02 8.8073976e-02 -6.5304647e-04 
9.7717755e-02 9.0972252e-02 -1.1474867e-03 
9.6174262e-02 8.9381687e-02 -1.1696464e-03 
9.6249409e-02 8.9344911e-02 -5.3141359e-04 
9.7762883e-02 9.0947524e-02 -7.5014780e-04 
9.4997093e-02 8.8153817e-02 -1.1038199e-03 
9.5301636e-02 8.8483393e-02 -1.1874456e-03 
9.4778985e-02 8.7894566e-02 -9.1405137e-04 
9.4817773e-02 8.7836944e-02 -3.6800682e-04 
9.5059708e-02 8.8074334e-02 -2.9822724e-04 
9.5369764e-02 8.8408522e-02 -3.7611349e-04 
9.7222365e-02 9.0468511e-02 -1.1920474e-03 
9.5634162e-02 8.8823631e-02 -1.1692520e-03 
9.7250767e-02 9.0447292e-02 -9.1038569e-04 
9.4495304e-02 8.7554492e-02 -6.5097213e-04 
9.5687017e-02 8.8769659e-02 -5.6291098e-04 
9.6421264e-02 8.9639351e-02 -1.1834641e-03 
9.6454225e-02 8.9612201e-02 -8.4209070e-04 
9.7792536e-02 9.1063656e-02 -1.2260163e-03 
9.7815357e-02 9.1053151e-02 -1.0362117e-03 
9.4769433e-02 8.7935276e-02 -1.1970400e-03 
9.5150068e-02 8.8326022e-02 -1.1832281e-03 
9.4459042e-02 8.7599665e-02 -1.1131946e-03 
9.4274312e-02 8.7374032e-02 -9.1833674e-04 
9.4313607e-02 8.7315597e-02 -3.6425487e-04 
9.4835289e-02 8.7855816e-02 -3.7214681e-04 
9.5203899e-02 8.8264704e-02 -5.2958512e-04 
9.4519444e-02 8.7515384e-02 -2.9263773e-04 
9.3989015e-02 8.7031238e-02 -6.4889557e-04 
9.5471337e-02 8.8660188e-02 -1.1960891e-03 
9.5498301e-02 8.8627450e-02 -8.5730932e-04 
9.4226681e-02 8.7376304e-02 -1.2067291e-03 
9.4290487e-02 8.7292455e-02 -3.6813453e-04 
9.3765914e-02 8.6849689e-02 -9.2261110e-04 
9.3805723e-02 8.6790428e-02 -3.6044471e-04 
9.4572484e-02 8.7729223e-02 -1.1827092e-03 
9.3910240e-02 8.7034434e-02 -1.1226904e-03 
9.4619937e-02 8.7667480e-02 -5.6276110e-04 
9.3968682e-02 8.6945616e-02 -2.8694823e-04 
9.7859837e-02 9.1181628e-02 -1.4955754e-03 
9.3478940e-02 8.6504072e-02 -6.4681034e-04 
9.6958488e-02 9.0252414e-02 -1.5069919e-03 
9.4069116e-02 8.7211803e-02 -1.1973354e-03 
9.4118051e-02 8.7142974e-02 -5.2814692e-04 
9.3673028e-02 8.6806089e-02 -1.2165437e-03 
9.3291856e-02 8.6261936e-02 -3.7233310e-04 
9.3253627e-02 8.6321339e-02 -9.2694443e-04 
9.3735054e-02 8.6718149e-02 -3.6412425e-04 
9.3350343e-02 8.6457796e-02 -1.1323148e-03 
9.3407109e-02 8.6364701e-02 -2.8112004e-04 
9.6053056e-02 8.9318953e-02 -1.5184236e-03 
9.4403282e-02 8.7559074e-02 -1.2090439e-03 
9.2964984e-02 8.5972995e-02 -6.4470759e-04 
9.4353147e-02 8.7447226e-02 -8.7217434e-04 
9.3468077e-02 8.6590700e-02 -1.1963292e-03 
9.3108095e-02 8.6224258e-02 -1.2264444e-03 
9.2737563e-02 8.5789084e-02 -9.3122636e-04 
9.2778347e-02 8.5728191e-02 -3.5262093e-04 
9.3510985e-02 8.6522266e-02 -5.6318007e-04 
9.3168534e-02 8.6132474e-02 -3.6006418e-04 
9.2778936e-02 8.5869290e-02 -1.1420507e-03 
9.5143430e-02 8.8381000e-02 -1.5298454e-03 
9.2834249e-02 8.5772187e-02 -2.7523452e-04 
9.2447206e-02 8.5437842e-02 -6.4252777e-04 
9.2944078e-02 8.6052112e-02 -1.2115613e-03 
9.2989035e-02 8.5976906e-02 -5.2717904e-04 
9.2217483e-02 8.5252747e-02 -9.3558122e-04 
9.2258818e-02 8.5191086e-02 -3.4865853e-04 
9.2531480e-02 8.5630387e-02 -1.2364507e-03 
9.2590660e-02 8.5535109e-02 -3.5603408e-04 
9.3266830e-02 8.6387359e-02 -1.2223128e-03 
9.2195600e-02 8.5268512e-02 -1.1518939e-03 
9.3277201e-02 8.6337298e-02 -8.8014972e-04 
9.2249826e-02 8.5167810e-02 -2.6926195e-04 
9.4229572e-02 8.7438717e-02 -1.5413286e-03 
9.1925338e-02 8.4898748e-02 -6.4035057e-04 
9.1787994e-02 8.4700964e-02 -3.2521880e-04 
9.1693416e-02 8.4712394e-02 -9.3985494e-04 
9.2317909e-02 8.5405052e-02 -1.2100466e-03 
9.2357233e-02 8.5331142e-02 -5.6428451e-04 
9.1942728e-02 8.5024126e-02 -1.2465373e-03 
9.2000909e-02 8.4925607e-02 -3.5193417e-04 
9.1600016e-02 8.4655218e-02 -1.1618419e-03 
9.1399476e-02 8.4355481e-02 -6.3811359e-04 
9.1653317e-02 8.4550954e-02 -2.6314499e-04 
9.3311332e-02 8.6491890e-02 -1.5526854e-03 
9.1771826e-02 8.4843852e-02 -1.2258374e-03 
9.1243133e-02 8.4136531e-02 -3.1362619e-04 
9.1165267e-02 8.4167816e-02 -9.4408181e-04 
9.1813788e-02 8.4763519e-02 -5.2675878e-04 
9.2134461e-02 8.5220203e-02 -1.2365569e-03 
9.1341555e-02 8.4405005e-02 -1.2567373e-03 
9.2145689e-02 8.5172690e-02 -9.0223533e-04 
9.1398984e-02 8.4303595e-02 -3.4796368e-04 
9.0869516e-02 8.3807968e-02 -6.3577341e-04 
9.0991609e-02 8.4028780e-02 -1.1719475e-03 
9.1044359e-02 8.3921470e-02 -2.5695929e-04 
9.0632863e-02 8.3619021e-02 -9.4839878e-04 
9.0676233e-02 8.3550625e-02 -3.0812918e-04 
9.2388861e-02 8.5540876e-02 -1.5639478e-03 
9.1118731e-02 8.4169015e-02 -1.2237504e-03 
9.1155522e-02 8.4090956e-02 -5.6610868e-04 
9.0727381e-02 8.3772622e-02 -1.2668823e-03 
9.0335280e-02 8.3256312e-02 -6.3348043e-04 
9.0784349e-02 8.3668634e-02 -3.4388714e-04 
9.0370014e-02 8.3388835e-02 -1.1820741e-03 
9.0422511e-02 8.3278805e-02 -2.5065595e-04 
9.0096295e-02 8.3065987e-02 -9.5266040e-04 
9.0108588e-02 8.2965516e-02 -3.1075758e-04 
9.0548977e-02 8.3583549e-02 -1.2400163e-03 
9.0589158e-02 8.3499588e-02 -5.2691746e-04 
8.9796811e-02 8.2700409e-02 -6.3114357e-04 
9.0769865e-02 8.3813243e-02 -1.2494813e-03 
9.0099812e-02 8.3126530e-02 -1.2770696e-03 
9.0785734e-02 8.3768412e-02 -9.0115878e-04 
9.0156637e-02 8.3020367e-02 -3.3983326e-04 
9.1461815e-02 8.4585123e-02 -1.5750501e-03 
8.9734741e-02 8.2734905e-02 -1.1922840e-03 
8.9787282e-02 8.2622498e-02 -2.4424857e-04 
8.9555487e-02 8.2508713e-02 -9.5686584e-04 
8.9599341e-02 8.2443282e-02 -3.2768431e-04 
8.9867063e-02 8.2879201e-02 -1.2373836e-03 
8.9254007e-02 8.2140058e-02 -6.2881591e-04 
8.9902498e-02 8.2798459e-02 -5.6887616e-04 
8.9458339e-02 8.2466245e-02 -1.2872950e-03 
8.9515463e-02 8.2358271e-02 -3.3570547e-04 
8.9010067e-02 8.1946768e-02 -9.6123177e-04 
8.9045785e-02 8.1874169e-02 -3.3728895e-04 
8.9085266e-02 8.2066506e-02 -1.2025523e-03 
9.0530291e-02 8.3624847e-02 -1.5860511e-03 
8.9138381e-02 8.1952237e-02 -2.3763499e-04 
8.9271970e-02 8.2267918e-02 -1.2540242e-03 
8.8706523e-02 8.1575148e-02 -6.2651245e-04 
8.9311555e-02 8.2181767e-02 -5.2784913e-04 
8.8796303e-02 8.1699632e-02 -8.0954900e-04 
8.9571744e-02 8.2578547e-02 -1.2615290e-03 
8.9587823e-02 8.2533516e-02 -9.0898824e-04 
8.8802502e-02 8.1791349e-02 -1.2975596e-03 
8.8860199e-02 8.1681952e-02 -3.3156676e-04 
8.8460125e-02 8.1380300e-02 -9.6550939e-04 
8.8504955e-02 8.1313372e-02 -3.1897204e-04 
8.8421069e-02 8.1383243e-02 -1.2129366e-03 
8.8475145e-02 8.1267186e-02 -2.3088804e-04 
8.8154554e-02 8.1005596e-02 -6.2406331e-04 
8.9594439e-02 8.2660474e-02 -1.5969402e-03 
8.8559017e-02 8.1531838e-02 -1.2508484e-03 
8.8594414e-02 8.1450038e-02 -5.7257985e-04 
8.7992750e-02 8.0780782e-02 -2.9305709e-04 
8.7905765e-02 8.0809362e-02 -9.6964499e-04 
8.8131599e-02 8.1101038e-02 -1.3078341e-03 
8.8190272e-02 8.0990642e-02 -3.2738145e-04 
8.7598063e-02 8.0431402e-02 -6.2148459e-04 
8.7741628e-02 8.0684260e-02 -1.2233524e-03 
8.7796874e-02 8.0567017e-02 -2.2413374e-04 
8.7936617e-02 8.0892801e-02 -1.2677365e-03 
8.8350013e-02 8.1321657e-02 -1.2825974e-03 
8.7976873e-02 8.0806062e-02 -5.2957056e-04 
8.8354953e-02 8.1271790e-02 -9.6637441e-04 
8.7346591e-02 8.0233693e-02 -9.7386324e-04 
8.7392576e-02 8.0165297e-02 -3.0980143e-04 
8.8654414e-02 8.1692360e-02 -1.6076183e-03 
8.7445199e-02 8.0394924e-02 -1.3180663e-03 
8.7505303e-02 8.0284081e-02 -3.2337435e-04 
8.7036863e-02 7.9852760e-02 -6.1893940e-04 
8.7046281e-02 7.9969220e-02 -1.2336862e-03 
8.7103218e-02 7.9851307e-02 -2.1730531e-04 
8.6782843e-02 7.9653375e-02 -9.7794400e-04 
8.6829290e-02 7.9584435e-02 -3.0527374e-04 
8.7190218e-02 8.0122560e-02 -1.2639133e-03 
8.7227106e-02 8.0041647e-02 -5.7724846e-04 
8.6470813e-02 7.9269513e-02 -6.1646116e-04 
8.6742669e-02 7.9672530e-02 -1.3281510e-03 
8.6804606e-02 7.9561621e-02 -3.1918637e-04 
8.7709531e-02 8.0719240e-02 -1.6178953e-03 
8.6334519e-02 7.9237603e-02 -1.2440119e-03 
8.6214207e-02 7.9068467e-02 -9.8204718e-04 
8.6261041e-02 7.8998670e-02 -3.0050622e-04 
8.6393602e-02 7.9119340e-02 -2.1007271e-04 
8.6971447e-02 7.9903126e-02 -1.2994485e-03 
8.6538464e-02 7.9453655e-02 -1.2810074e-03 
8.6977042e-02 7.9855986e-02 -9.9276856e-04 
8.6581185e-02 7.9368480e-02 -5.3207180e-04 
8.5899979e-02 7.8681096e-02 -6.1387802e-04 
8.6023524e-02 7.8933150e-02 -1.3382898e-03 
8.6087488e-02 7.8822650e-02 -3.1501640e-04 
8.5640594e-02 7.8478284e-02 -9.8620309e-04 
8.5688099e-02 7.8407936e-02 -2.9581273e-04 
8.5605688e-02 7.8488529e-02 -1.2544570e-03 
8.5667320e-02 7.8370638e-02 -2.0289276e-04 
8.6760089e-02 7.9741962e-02 -1.6280278e-03 
8.5324019e-02 7.8087933e-02 -6.1131659e-04 
8.5756071e-02 7.8646831e-02 -1.2765636e-03 
8.5795857e-02 7.8568585e-02 -5.8316201e-04 
8.5061967e-02 7.7883370e-02 -9.9032721e-04 
8.5109904e-02 7.7812247e-02 -2.9095542e-04 
8.5286789e-02 7.8175977e-02 -1.3481836e-03 
8.5353620e-02 7.8066655e-02 -3.1094198e-04 
8.4743127e-02 7.7489607e-02 -6.0858671e-04 
8.4859140e-02 7.7721559e-02 -1.2646600e-03 
8.4923647e-02 7.7604458e-02 -1.9544506e-04 
8.5526623e-02 7.8417473e-02 -1.3172920e-03 
8.5534573e-02 7.8374997e-02 -1.0218509e-03 
8.5012749e-02 7.7882335e-02 -1.2823803e-03 
8.5806221e-02 7.8760691e-02 -1.6379029e-03 
8.4478341e-02 7.7283278e-02 -9.9417183e-04 
8.4526815e-02 7.7211738e-02 -2.8626167e-04 
8.5054673e-02 7.7806570e-02 -5.8648852e-04 
8.4532224e-02 7.7400729e-02 -1.3579500e-03 
8.4601983e-02 7.7292897e-02 -3.0682504e-04 
8.4157005e-02 7.6886617e-02 -6.0594513e-04 
8.4093928e-02 7.6935910e-02 -1.2749224e-03 
8.4162369e-02 7.6820321e-02 -1.8791613e-04 
8.3889544e-02 7.6678611e-02 -9.9800748e-04 
8.3938345e-02 7.6606140e-02 -2.8127673e-04 
8.4251232e-02 7.7099413e-02 -1.2881916e-03 
8.3908722e-02 7.6618604e-02 -5.3351908e-04 
8.4295809e-02 7.7026658e-02 -5.9035845e-04 
8.3565757e-02 7.6278284e-02 -6.0308771e-04 
8.4847078e-02 7.7773869e-02 -1.6472959e-03 
8.4333360e-02 7.7189080e-02 -1.3193019e-03 
8.3758794e-02 7.6606557e-02 -1.3672090e-03 
8.4354430e-02 7.7153735e-02 -9.8352111e-04 
8.3832309e-02 7.6501131e-02 -3.0269078e-04 
8.3295353e-02 7.6068275e-02 -1.0016438e-03 
8.3344698e-02 7.5995423e-02 -2.7628531e-04 
8.3310142e-02 7.6131403e-02 -1.2846012e-03 
8.3382227e-02 7.6017737e-02 -1.8059036e-04 
8.2969196e-02 7.5665079e-02 -6.0041109e-04 
8.3470762e-02 7.6297447e-02 -1.2938504e-03 
8.3518386e-02 7.6228239e-02 -5.9442496e-04 
8.2966074e-02 7.5792953e-02 -1.3765570e-03 
8.2696065e-02 7.5452976e-02 -1.0054121e-03 
8.2745850e-02 7.5379543e-02 -2.7119517e-04 
8.3043583e-02 7.5690359e-02 -2.9843411e-04 
8.3883002e-02 7.6783344e-02 -1.6566571e-03 
8.2506105e-02 7.5306751e-02 -1.2947045e-03 
8.2367234e-02 7.5046420e-02 -5.9755828e-04 
8.3310485e-02 7.6103181e-02 -1.1181528e-03 
8.3283074e-02 7.6118357e-02 -1.3750996e-03 
8.2582921e-02 7.5195827e-02 -1.7252572e-04 
8.2670487e-02 7.5475693e-02 -1.2990448e-03 
8.2721539e-02 7.5410396e-02 -5.9902744e-04 
8.2091078e-02 7.4832283e-02 -1.0091879e-03 
8.2141310e-02 7.4758284e-02 -2.6604874e-04 
8.2152925e-02 7.4958839e-02 -1.3856395e-03 
8.2235292e-02 7.4859820e-02 -2.9428897e-04 
8.1759475e-02 7.4422233e-02 -5.9463794e-04 
8.2914345e-02 7.5788192e-02 -1.6651551e-03 
8.1681080e-02 7.4461095e-02 -1.3046423e-03 
8.1763402e-02 7.4353583e-02 -1.6427663e-04 
8.1480771e-02 7.4206628e-02 -1.0122864e-03 
8.1531353e-02 7.4131921e-02 -2.6109157e-04 
8.2339719e-02 7.5106680e-02 -1.1241802e-03 
8.2312725e-02 7.5122334e-02 -1.3831106e-03 
8.1836253e-02 7.4619696e-02 -1.3042918e-03 
8.1884213e-02 7.4551053e-02 -5.9906929e-04 
8.1367955e-02 7.4031398e-02 -6.6006096e-04 
8.1147179e-02 7.3793724e-02 -5.9156085e-04 
8.1324697e-02 7.4109986e-02 -1.3947804e-03 
8.1416428e-02 7.4018285e-02 -2.8461972e-04 
8.0869988e-02 7.3579602e-02 -1.0098066e-03 
8.0920652e-02 7.3505573e-02 -2.5831794e-04 
8.0849469e-02 7.3609173e-02 -1.3135269e-03 
8.1941046e-02 7.4789181e-02 -1.6732017e-03 
8.0945939e-02 7.3514484e-02 -1.5654990e-04 
8.0539331e-02 7.3170528e-02 -5.8880309e-04 
8.0984361e-02 7.3746718e-02 -1.3124708e-03 
8.1056222e-02 7.3698506e-02 -5.7922647e-04 
8.1367001e-02 7.4109338e-02 -1.1315547e-03 
8.1340477e-02 7.4125312e-02 -1.3911575e-03 
8.0555856e-02 7.3198333e-02 -6.5671996e-04 
8.0263913e-02 7.2958045e-02 -1.0070961e-03 
8.0498748e-02 7.3264062e-02 -1.4040183e-03 
8.0314234e-02 7.2883897e-02 -2.5538236e-04 
8.0604665e-02 7.3184483e-02 -2.7230292e-04 
7.9936087e-02 7.2551847e-02 -5.8567093e-04 
8.0032751e-02 7.2773121e-02 -1.3218903e-03 
8.0141656e-02 7.2689772e-02 -1.4900626e-04 
8.0967389e-02 7.3790535e-02 -1.6808131e-03 
8.0164157e-02 7.2907396e-02 -1.3220630e-03 
8.0250539e-02 7.2869405e-02 -5.5838970e-04 
7.9661749e-02 7.2340712e-02 -1.0045801e-03 
7.9712130e-02 7.2267182e-02 -2.5254488e-04 
8.0324695e-02 7.3076032e-02 -1.3473495e-03 
8.0365144e-02 7.3059604e-02 -9.9661946e-04 
7.9687409e-02 7.2433919e-02 -1.4127417e-03 
7.9805665e-02 7.2364196e-02 -2.6023824e-04 
7.9552770e-02 7.2170243e-02 -6.5150001e-04 
7.9336956e-02 7.1938254e-02 -5.8277254e-04 
7.9350121e-02 7.1878515e-02 -1.4134349e-04 
7.9229832e-02 7.1951799e-02 -1.3296469e-03 
7.9064205e-02 7.1728356e-02 -1.0016788e-03 
7.9114363e-02 7.1655408e-02 -2.4977644e-04 
7.9457335e-02 7.2053969e-02 -5.3810154e-04 
7.9358056e-02 7.2083130e-02 -1.3316601e-03 
7.9995327e-02 7.2794870e-02 -1.6881187e-03 
7.8741856e-02 7.1329281e-02 -5.8001524e-04 
7.9019092e-02 7.1557499e-02 -2.4847686e-04 
7.8889742e-02 7.1618617e-02 -1.4209613e-03 
7.9399124e-02 7.2137669e-02 -1.4068101e-03 
7.9333693e-02 7.2007313e-02 -1.0218017e-03 
7.8470595e-02 7.1120694e-02 -9.9864532e-04 
7.8507073e-02 7.1035139e-02 -2.5375350e-04 
7.8570925e-02 7.1080163e-02 -1.3325563e-04 
7.8440674e-02 7.1145572e-02 -1.3373746e-03 
7.8287303e-02 7.0879132e-02 -6.7128660e-04 
7.8150876e-02 7.0724346e-02 -5.7686947e-04 
7.8675993e-02 7.1251549e-02 -5.1877002e-04 
7.8495182e-02 7.1197122e-02 -1.3161843e-03 
7.8244254e-02 7.0763946e-02 -2.3751406e-04 
7.8105725e-02 7.0817411e-02 -1.4285776e-03 
7.7880882e-02 7.0517033e-02 -9.9529431e-04 
7.9025634e-02 7.1802951e-02 -1.6951697e-03 
7.7930659e-02 7.0444718e-02 -2.4395423e-04 
7.7881068e-02 7.0457011e-02 -6.2892697e-04 
7.8446642e-02 7.1099952e-02 -1.0232336e-03 
7.7563897e-02 7.0124298e-02 -5.7394884e-04 
7.7802785e-02 7.0294999e-02 -1.2648381e-04 
7.7664599e-02 7.0352741e-02 -1.3438411e-03 
7.8430720e-02 7.1147725e-02 -1.4135117e-03 
7.7906728e-02 7.0462510e-02 -4.9949938e-04 
7.7786773e-02 7.0477985e-02 -1.3492529e-03 
7.7295266e-02 6.9918260e-02 -9.9223747e-04 
7.7345014e-02 6.9846317e-02 -2.4113589e-04 
7.7481374e-02 6.9983214e-02 -2.2625949e-04 
7.7334732e-02 7.0030138e-02 -1.4353860e-03 
7.7137768e-02 6.9682449e-02 -5.3325074e-04 
7.6980680e-02 6.9528565e-02 -5.7104469e-04 
7.8056917e-02 7.0812874e-02 -1.7015581e-03 
7.7046603e-02 6.9522038e-02 -1.1881059e-04 
7.6901093e-02 6.9573782e-02 -1.3501404e-03 
7.7553369e-02 7.0169434e-02 -9.1807527e-04 
7.7458069e-02 7.0139661e-02 -1.3333014e-03 
7.6713376e-02 6.9323756e-02 -9.8882383e-04 
7.7148996e-02 6.9685571e-02 -4.8100404e-04 
7.6715916e-02 6.9198035e-02 -2.0118509e-04 
7.7020653e-02 6.9696538e-02 -1.3578506e-03 
7.6401018e-02 6.8936862e-02 -5.6826859e-04 
7.6729581e-02 6.9214284e-02 -2.1510938e-04 
7.6576136e-02 6.9256507e-02 -1.4416807e-03 
7.6184750e-02 6.8662219e-02 -2.3565540e-04 
7.6123089e-02 6.8714447e-02 -9.4484806e-04 
7.6301485e-02 6.8761013e-02 -1.1150094e-04 
7.6149605e-02 6.8807736e-02 -1.3559303e-03 
7.7089570e-02 6.9824643e-02 -1.7068052e-03 
7.6018393e-02 6.8575077e-02 -7.4519607e-04 
7.6402389e-02 6.8921231e-02 -4.6311057e-04 
7.6266460e-02 6.8927847e-02 -1.3660791e-03 
7.5825296e-02 6.8349808e-02 -5.6562724e-04 
7.5988583e-02 6.8457916e-02 -2.0488202e-04 
7.6498263e-02 6.9174312e-02 -1.4251346e-03 
7.6522514e-02 6.9157138e-02 -1.1656737e-03 
7.5700961e-02 6.8162680e-02 -1.9404180e-04 
7.5829275e-02 6.8495013e-02 -1.4472740e-03 
7.5617164e-02 6.8212882e-02 -1.0339400e-03 
7.6257028e-02 6.8818927e-02 -7.4951712e-04 
7.6116793e-02 6.8767488e-02 -1.3194889e-03 
7.5566635e-02 6.8011753e-02 -1.0467543e-04 
7.5410761e-02 6.8054520e-02 -1.3600577e-03 
7.5253621e-02 6.7766942e-02 -5.6268607e-04 
7.5666428e-02 6.8168283e-02 -4.4564350e-04 
7.5524837e-02 6.8172567e-02 -1.3736919e-03 
7.6123044e-02 6.8837903e-02 -1.7113237e-03 
7.5072370e-02 6.7520104e-02 -1.7648506e-04 
7.4987553e-02 6.7572333e-02 -1.0389485e-03 
7.5258449e-02 6.7712329e-02 -1.9465733e-04 
7.5094782e-02 6.7747094e-02 -1.4526848e-03 
7.4685626e-02 6.7188017e-02 -5.5971753e-04 
7.5534120e-02 6.8191446e-02 -1.4296923e-03 
7.5557768e-02 6.8174168e-02 -1.1707442e-03 
7.4842662e-02 6.7273349e-02 -9.7217468e-05 
7.4683197e-02 6.7314222e-02 -1.3645949e-03 
7.4940875e-02 6.7426734e-02 -4.2872515e-04 
7.4377827e-02 6.6949308e-02 -1.0253221e-03 
7.4711233e-02 6.7347407e-02 -1.3976868e-03 
7.4939825e-02 6.7473687e-02 -7.2869938e-04 
7.4351408e-02 6.6785619e-02 -1.7171330e-04 
7.4538350e-02 6.6978179e-02 -1.8473269e-04 
7.4371777e-02 6.7011014e-02 -1.4571254e-03 
7.4120767e-02 6.6613197e-02 -5.5681140e-04 
7.5158902e-02 6.7854628e-02 -1.7148516e-03 
7.4023850e-02 6.6539317e-02 -7.1490248e-04 
7.4128538e-02 6.6546544e-02 -9.0215610e-05 
7.4489839e-02 6.7109965e-02 -1.3226201e-03 
7.3867388e-02 6.6416241e-02 -9.3807059e-04 
7.3966727e-02 6.6585004e-02 -1.3684988e-03 
7.3909283e-02 6.6344954e-02 -2.2500148e-04 
7.4225441e-02 6.6696420e-02 -4.1216367e-04 
7.4571997e-02 6.7211494e-02 -1.4332434e-03 
7.4595235e-02 6.7194104e-02 -1.1746692e-03 
7.4075773e-02 6.6698380e-02 -1.3874994e-03 
7.3705360e-02 6.6123940e-02 -1.3740092e-04 
7.3559672e-02 6.6042520e-02 -5.5405364e-04 
7.3828317e-02 6.6255108e-02 -1.7452448e-04 
7.3659532e-02 6.6286720e-02 -1.4611676e-03 
7.3432833e-02 6.5861732e-02 -2.2940351e-04 
7.3300861e-02 6.5844409e-02 -9.6491579e-04 
7.3424280e-02 6.5829664e-02 -8.3284132e-05 
7.3260948e-02 6.5868028e-02 -1.3717540e-03 
7.4196212e-02 6.6874392e-02 -1.7179725e-03 
7.3519588e-02 6.5976672e-02 -3.9610060e-04 
7.3002063e-02 6.5475620e-02 -5.5112247e-04 
7.3286869e-02 6.5899469e-02 -1.4093181e-03 
7.2977439e-02 6.5387435e-02 -1.5491930e-04 
7.3520809e-02 6.6033907e-02 -7.5236603e-04 
7.3127747e-02 6.5542206e-02 -1.6503206e-04 
7.2997607e-02 6.5476380e-02 -5.8745389e-04 
7.2785042e-02 6.5332159e-02 -1.0400659e-03 
7.3611364e-02 6.6234402e-02 -1.4365683e-03 
7.2958022e-02 6.5573819e-02 -1.4647704e-03 
7.3634155e-02 6.6216953e-02 -1.1785175e-03 
7.2729282e-02 6.5123774e-02 -7.6906566e-05 
7.3073044e-02 6.5668009e-02 -1.3200949e-03 