# vtk DataFile Version 4.0
vtk output
ASCII
DATASET UNSTRUCTURED_GRID
POINTS 4496 float
-4.3633327e-01 9.6409470e-01 4.4200001e+01 
-4.3633258e-01 9.6409065e-01 4.4074627e+01 
-3.2152572e-01 9.1279918e-01 4.4200001e+01 
-3.8534868e-01 8.4052670e-01 4.4200001e+01 
-3.9589554e-01 8.5545403e-01 4.4010014e+01 
-3.2616228e-01 9.1667932e-01 4.4011734e+01 
-4.3633190e-01 9.6408653e-01 4.3948376e+01 
-2.1293370e-01 8.4677851e-01 4.4200001e+01 
-2.9042658e-01 7.3813015e-01 4.4200001e+01 
-2.1010752e-01 8.4669363e-01 4.4073502e+01 
-2.8908840e-01 7.3604190e-01 4.4072292e+01 
-3.9589015e-01 8.5505831e-01 4.3883316e+01 
-3.2487559e-01 9.1697580e-01 4.3885036e+01 
-2.0722924e-01 8.4660655e-01 4.3944645e+01 
-1.1981077e-01 7.7773046e-01 4.4200001e+01 
-2.8772619e-01 7.3391593e-01 4.3942276e+01 
-4.3633121e-01 9.6408242e-01 4.3821228e+01 
-1.9739023e-01 6.6468561e-01 4.4200001e+01 
-2.9444304e-01 7.8727525e-01 4.3879974e+01 
-8.7554991e-02 7.5255024e-01 4.4042213e+01 
-1.6445170e-01 6.4084798e-01 4.4041008e+01 
-3.2357255e-01 9.1726828e-01 4.3757431e+01 
-3.9587301e-01 8.5463828e-01 4.3755711e+01 
-2.0429766e-01 8.4651643e-01 4.3813354e+01 
-2.8633916e-01 7.3175091e-01 4.3809875e+01 
-2.6899619e-02 6.8901783e-01 4.4200001e+01 
-1.0567340e-01 7.7152997e-01 4.3875790e+01 
-4.3633053e-01 9.6407831e-01 4.3693161e+01 
-8.7133333e-02 5.9509218e-01 4.4200001e+01 
-1.8777622e-01 6.5475601e-01 4.3873402e+01 
-2.0131156e-01 8.4642249e-01 4.3679543e+01 
-3.2225290e-01 9.1755641e-01 4.3628902e+01 
-3.9584404e-01 8.5419410e-01 4.3627178e+01 
-1.0114321e-03 6.6670936e-01 4.3939713e+01 
-2.8492665e-01 7.2954547e-01 4.3675007e+01 
-1.0131179e-01 7.7015632e-01 4.3743176e+01 
-6.0682178e-02 5.7631296e-01 4.3938457e+01 
3.9444737e-02 6.2338209e-01 4.4053139e+01 
-1.8470748e-01 6.5131217e-01 4.3739727e+01 
-7.0938184e-03 5.4737431e-01 4.4052326e+01 
-4.3632981e-01 9.6407413e-01 4.3564159e+01 
7.6947339e-02 5.8804804e-01 4.4200001e+01 
-1.2721874e-02 6.8194175e-01 4.3817982e+01 
-7.7214435e-02 5.8474159e-01 4.3819649e+01 
4.0195532e-02 5.2425718e-01 4.4200001e+01 
-1.9826968e-01 8.4632379e-01 4.3543118e+01 
-9.6842363e-02 7.6872379e-01 4.3607994e+01 
-3.2091641e-01 9.1783977e-01 4.3499420e+01 
-3.9580306e-01 8.5372573e-01 4.3497700e+01 
-2.8348783e-01 7.2729832e-01 4.3537586e+01 
-1.8155001e-01 6.4778340e-01 4.3603539e+01 
1.5678726e-01 5.2239102e-01 4.4060219e+01 
1.0298219e-02 6.6009766e-01 4.3674484e+01 
1.3250886e-01 4.7546524e-01 4.4058990e+01 
-4.3632913e-01 9.6407002e-01 4.3434200e+01 
-5.0139543e-02 5.6696451e-01 4.3671154e+01 
1.3504514e-01 5.4209155e-01 4.3856747e+01 
1.0361936e-01 4.8715758e-01 4.3855240e+01 
2.0846681e-01 4.8028421e-01 4.4200001e+01 
1.9279444e-01 4.4799727e-01 4.4200001e+01 
-9.2261828e-02 7.6722860e-01 4.3470158e+01 
-1.4701239e-03 6.7547697e-01 4.3552124e+01 
-1.9517080e-01 8.4621930e-01 4.3403992e+01 
-3.1956279e-01 9.1811794e-01 4.3368977e+01 
-3.9574999e-01 8.5323322e-01 4.3367252e+01 
-1.7830023e-01 6.4416617e-01 4.3464752e+01 
-6.7131944e-02 5.7555372e-01 4.3547829e+01 
-2.8202194e-01 7.2500783e-01 4.3397518e+01 
-4.3632844e-01 9.6406585e-01 4.3303261e+01 
1.5138821e-01 5.3037512e-01 4.3609200e+01 
1.2119007e-01 4.7490793e-01 4.3606068e+01 
-8.7566733e-02 7.6566672e-01 4.3329563e+01 
-1.7495437e-01 6.4045686e-01 4.3323273e+01 
-3.1819177e-01 9.1839045e-01 4.3237537e+01 
-3.9568463e-01 8.5271639e-01 4.3235813e+01 
2.2269404e-02 6.5294570e-01 4.3398811e+01 
-1.9201367e-01 8.4610778e-01 4.3262066e+01 
-3.8899176e-02 5.5709696e-01 4.3393635e+01 
-2.8052819e-01 7.2267252e-01 4.3254715e+01 
3.7877345e-01 3.8273901e-01 4.4200001e+01 
-4.3632776e-01 9.6406174e-01 4.3171322e+01 
3.9241230e-01 3.7329337e-01 4.3965439e+01 
1.0283732e-02 6.6872352e-01 4.3271511e+01 
-5.6385640e-02 5.6585240e-01 4.3265472e+01 
-8.2753494e-02 7.6403379e-01 4.3186119e+01 
-4.0345609e-01 8.6371827e-01 4.3104889e+01 
-3.1680310e-01 9.1865683e-01 4.3105087e+01 
-1.7150842e-01 6.3665158e-01 4.3179005e+01 
-1.8879703e-01 8.4598809e-01 4.3117241e+01 
-2.7900568e-01 7.2029078e-01 4.3109074e+01 
4.0610775e-01 3.6380205e-01 4.3729839e+01 
1.6776134e-01 5.1882964e-01 4.3331150e+01 
-4.3632707e-01 9.6405768e-01 4.3038357e+01 
1.4031014e-01 4.6124566e-01 4.3307755e+01 
3.4952711e-02 6.4519531e-01 4.3111935e+01 
-7.7818394e-02 7.6232505e-01 4.3039719e+01 
-3.1539652e-01 9.1891652e-01 4.2971603e+01 
-3.9551663e-01 8.5160977e-01 4.2969879e+01 
-2.6899155e-02 5.4666573e-01 4.3105160e+01 
-1.6795819e-01 6.3274628e-01 4.3031849e+01 
-1.8551964e-01 8.4585863e-01 4.2969406e+01 
4.1985780e-01 3.5425979e-01 4.3493168e+01 
-2.7745360e-01 7.1786088e-01 4.2960495e+01 
-4.3632638e-01 9.6405357e-01 4.2904346e+01 
2.2723136e-02 6.6139150e-01 4.2979332e+01 
-4.4916678e-02 5.5559248e-01 4.2971806e+01 
-3.1397179e-01 9.1916907e-01 4.2837063e+01 
-3.9541367e-01 8.5101974e-01 4.2835335e+01 
-7.2757579e-02 7.6053542e-01 4.2890255e+01 
-1.6429928e-01 6.2873662e-01 4.2881699e+01 
1.8463810e-01 5.0694346e-01 4.3035332e+01 
-1.8218029e-01 8.4571803e-01 4.2818455e+01 
1.5503895e-01 4.5003417e-01 4.3027725e+01 
-2.7587104e-01 7.1538109e-01 4.2808868e+01 
4.3366045e-01 3.4466109e-01 4.3255390e+01 
-4.3632573e-01 9.6404958e-01 4.2769268e+01 
-3.8429454e-01 8.3484912e-01 4.2710606e+01 
-3.1252861e-01 9.1941386e-01 4.2701439e+01 
4.8404284e-02 6.3678014e-01 4.2813030e+01 
-1.4070326e-02 5.3562075e-01 4.2804932e+01 
-6.7567028e-02 7.5865942e-01 4.2737610e+01 
-1.6052702e-01 6.2461799e-01 4.2728443e+01 
-1.7877772e-01 8.4556442e-01 4.2664265e+01 
-4.3632504e-01 9.6404558e-01 4.2633099e+01 
-2.7425703e-01 7.1284944e-01 4.2654083e+01 
4.4751364e-01 3.3500037e-01 4.3016472e+01 
3.5901129e-02 6.5341437e-01 4.2674721e+01 
-3.7959340e-01 8.2794034e-01 4.2568317e+01 
-3.1106678e-01 9.1965032e-01 4.2564713e+01 
-3.2659348e-02 5.4472327e-01 4.2665997e+01 
2.0396979e-01 4.9291667e-01 4.2740131e+01 
-6.2242586e-02 7.5669110e-01 4.2581669e+01 
1.7765003e-01 4.3475360e-01 4.2732578e+01 
-1.5663649e-01 6.2038553e-01 4.2571964e+01 
-4.3632439e-01 9.6404165e-01 4.2495808e+01 
-1.7531081e-01 8.4539592e-01 4.2506718e+01 
-2.7261066e-01 7.1026409e-01 4.2496017e+01 
-3.0958602e-01 9.1987789e-01 4.2426853e+01 
-3.7859210e-01 8.2613736e-01 4.2421188e+01 
4.6141517e-01 3.2527190e-01 4.2776375e+01 
6.2686495e-02 6.2762415e-01 4.2501175e+01 
-3.3570320e-04 5.2390522e-01 4.2492062e+01 
-5.6779940e-02 7.5462401e-01 4.2422298e+01 
-4.3632373e-01 9.6403772e-01 4.2357380e+01 
-1.5262254e-01 6.1603409e-01 4.2412144e+01 
-1.7177837e-01 8.4521037e-01 4.2345684e+01 
-2.7093092e-01 7.0762289e-01 4.2334549e+01 
-3.0808610e-01 9.2009580e-01 4.2287842e+01 
-3.8275370e-01 8.3137155e-01 4.2275047e+01 
4.9876589e-02 6.4471585e-01 4.2356720e+01 
-1.9539909e-02 5.3318781e-01 4.2347118e+01 
-4.3632311e-01 9.6403396e-01 4.2217781e+01 
2.1959943e-01 4.8236796e-01 4.2385345e+01 
-5.1174615e-02 7.5245124e-01 4.2259373e+01 
1.9034323e-01 4.2346162e-01 4.2378918e+01 
-1.4847966e-01 6.1155808e-01 4.2248856e+01 
4.7536272e-01 3.1546980e-01 4.2535065e+01 
-1.6817927e-01 8.4500539e-01 4.2181026e+01 
-2.6921678e-01 7.0492369e-01 4.2169544e+01 
-3.0656675e-01 9.2030340e-01 4.2147648e+01 
-3.9470181e-01 8.4769493e-01 4.2145920e+01 
7.7868804e-02 6.1763972e-01 4.2175373e+01 
-4.3632248e-01 9.6403021e-01 4.2076988e+01 
1.4390758e-02 5.1145434e-01 4.2165581e+01 
-4.5421973e-02 7.5016522e-01 4.2092751e+01 
-1.4420210e-01 6.0695171e-01 4.2081959e+01 
-3.0502778e-01 9.2049998e-01 4.2006248e+01 
-4.0175444e-01 8.5747409e-01 4.2004128e+01 
-1.6451253e-01 8.4477836e-01 4.2012604e+01 
4.8935395e-01 3.0558801e-01 4.2292507e+01 
-2.6746723e-01 7.0216429e-01 4.2000870e+01 
6.4714879e-02 6.3520777e-01 4.2024277e+01 
-4.3632188e-01 9.6402657e-01 4.1934975e+01 
-5.4755262e-03 5.2092212e-01 4.2014156e+01 
-2.3078828e-01 8.1064087e-01 4.1931458e+01 
2.3550548e-01 4.7116494e-01 4.2073269e+01 
2.0610523e-01 4.1123796e-01 4.2066772e+01 
-3.9517213e-02 7.4775779e-01 4.1922287e+01 
-1.3978374e-01 6.0220873e-01 4.1911320e+01 
-3.0346894e-01 9.2068475e-01 4.1863613e+01 
-3.9432141e-01 8.4618556e-01 4.1861881e+01 
-1.6077711e-01 8.4452641e-01 4.1840263e+01 
-2.6568118e-01 6.9934219e-01 4.1828377e+01 
-4.3632129e-01 9.6402299e-01 4.1791718e+01 
5.0338638e-01 2.9562023e-01 4.2048656e+01 
9.4028555e-02 6.0672593e-01 4.1834507e+01 
3.0205652e-02 4.9819478e-01 4.1824417e+01 
-3.8116732e-01 8.2744831e-01 4.1725647e+01 
-3.0189002e-01 9.2085695e-01 4.1719719e+01 
-3.3455357e-02 7.4522001e-01 4.1747829e+01 
-1.3521814e-01 5.9732240e-01 4.1736786e+01 
-4.3632072e-01 9.6401960e-01 4.1647179e+01 
-1.5697217e-01 8.4424627e-01 4.1663853e+01 
-2.6385748e-01 6.9645494e-01 4.1651920e+01 
8.0488607e-02 6.2478805e-01 4.1676235e+01 
2.6870471e-01 4.4547972e-01 4.1752304e+01 
9.6269641e-03 5.0785345e-01 4.1665993e+01 
2.4764967e-01 3.8646612e-01 4.1743168e+01 
-3.0029076e-01 9.2101562e-01 4.1574532e+01 
-3.9388368e-01 8.4456980e-01 4.1572796e+01 
5.1745731e-01 2.8556010e-01 4.1803486e+01 
-2.7231261e-02 7.4254233e-01 4.1569210e+01 
-1.3049847e-01 5.9228569e-01 4.1558201e+01 
-4.3632016e-01 9.6401632e-01 4.1501339e+01 
-1.5309690e-01 8.4393430e-01 4.1483204e+01 
-2.6199502e-01 6.9349992e-01 4.1471333e+01 
-2.9867104e-01 9.2115986e-01 4.1428024e+01 
-3.9364263e-01 8.4372103e-01 4.1426289e+01 
1.1125199e-01 5.9476525e-01 4.1477348e+01 
4.7217656e-02 4.8404291e-01 4.1467384e+01 
-4.3631962e-01 9.6401310e-01 4.1354160e+01 
-2.0839609e-02 7.3971421e-01 4.1386261e+01 
-1.2561750e-01 5.8709091e-01 4.1375404e+01 
5.3156406e-01 2.7540097e-01 4.1556946e+01 
-1.4915068e-01 8.4358656e-01 4.1298138e+01 
-2.9703063e-01 9.2128879e-01 4.1280167e+01 
-3.9338648e-01 8.4284443e-01 4.1278431e+01 
-2.6009262e-01 6.9047421e-01 4.1286449e+01 
2.9365057e-01 4.2687622e-01 4.1391586e+01 
9.7278498e-02 6.1333776e-01 4.1311302e+01 
2.7470219e-01 3.6807936e-01 4.1382729e+01 
2.5872495e-02 4.9389899e-01 4.1301384e+01 
-4.3631911e-01 9.6401012e-01 4.1205620e+01 
-1.4274905e-02 7.3672432e-01 4.1198803e+01 
-1.2056758e-01 5.8173001e-01 4.1188221e+01 
-2.9536936e-01 9.2140132e-01 4.1130928e+01 
[...]
POINT_DATA 4496
FIELD FieldData 5
DISPLACEMENT 3 4496  float
4.0288293e-03 4.4385227e-03 -6.2212814e-05 
4.0110010e-03 4.4129053e-03 -6.2207786e-05 
4.0381132e-03 4.4593075e-03 -6.8065325e-05 
4.0511996e-03 4.4477563e-03 -4.4219902e-05 
4.0214784e-03 4.4070277e-03 -4.5764209e-05 
4.0106373e-03 4.4199978e-03 -6.8191534e-05 
3.9930525e-03 4.3871161e-03 -6.2202016e-05 
4.0500658e-03 4.4789733e-03 -7.0027949e-05 
4.0697409e-03 4.4649462e-03 -3.6801761e-05 
4.0320875e-03 4.4536330e-03 -7.0408234e-05 
4.0519522e-03 4.4390894e-03 -3.6561029e-05 
4.0035364e-03 4.3811486e-03 -4.5679582e-05 
3.9925724e-03 4.3943468e-03 -6.8430585e-05 
4.0137786e-03 4.4278177e-03 -7.0793772e-05 
4.0625683e-03 4.4958410e-03 -6.9173031e-05 
4.0338417e-03 4.4127712e-03 -3.6318914e-05 
3.9749835e-03 4.3611517e-03 -6.2194988e-05 
4.0830420e-03 4.4817985e-03 -3.5031804e-05 
4.0153246e-03 4.3988242e-03 -4.6263620e-05 
4.0446804e-03 4.4694315e-03 -6.8613343e-05 
4.0647355e-03 4.4552642e-03 -3.4842615e-05 
3.9743898e-03 4.3685222e-03 -6.8662208e-05 
3.9854734e-03 4.3550967e-03 -4.5595563e-05 
3.9951289e-03 4.4015190e-03 -7.1184833e-05 
4.0154010e-03 4.3859738e-03 -3.6072277e-05 
4.0786359e-03 4.5126774e-03 -6.4269901e-05 
4.0175738e-03 4.4321273e-03 -6.9903799e-05 
3.9568045e-03 4.3350128e-03 -6.2184088e-05 
4.0956521e-03 4.5017740e-03 -3.6495479e-05 
4.0383665e-03 4.4167857e-03 -3.4363096e-05 
3.9761327e-03 4.3747225e-03 -7.1579198e-05 
3.9560883e-03 4.3425201e-03 -6.8897534e-05 
3.9672973e-03 4.3288763e-03 -4.5512821e-05 
4.0456378e-03 4.4641439e-03 -6.3388317e-05 
3.9966181e-03 4.3586870e-03 -3.5824734e-05 
3.9989660e-03 4.4058086e-03 -7.0234782e-05 
4.0618237e-03 4.4530891e-03 -3.6412363e-05 
4.0696235e-03 4.4946717e-03 -6.0295693e-05 
4.0199650e-03 4.3900264e-03 -3.4096782e-05 
4.0832781e-03 4.4860807e-03 -3.8125123e-05 
3.9384984e-03 4.3087108e-03 -6.2174455e-05 
4.0969313e-03 4.5315092e-03 -5.8415255e-05 
4.0255589e-03 4.4371272e-03 -6.4829939e-05 
4.0433835e-03 4.4258060e-03 -3.5780711e-05 
4.1084951e-03 4.5248535e-03 -4.0133829e-05 
3.9567752e-03 4.3474105e-03 -7.1976727e-05 
3.9800103e-03 4.3789893e-03 -7.0565955e-05 
3.9376677e-03 4.3163495e-03 -6.9127615e-05 
3.9489996e-03 4.3024789e-03 -4.5418066e-05 
3.9774934e-03 4.3308991e-03 -3.5574063e-05 
4.0012281e-03 4.3627769e-03 -3.3825876e-05 
4.0889261e-03 4.5173867e-03 -5.6356130e-05 
4.0090922e-03 4.4119437e-03 -6.3637563e-05 
4.0972540e-03 4.5127380e-03 -4.3293909e-05 
3.9200792e-03 4.2822212e-03 -6.2157917e-05 
4.0254537e-03 4.4003422e-03 -3.5999881e-05 
4.0563792e-03 4.4718031e-03 -5.7284971e-05 
4.0661064e-03 4.4658105e-03 -4.1563766e-05 
4.1164700e-03 4.5553688e-03 -5.5108285e-05 
4.1223234e-03 4.5525297e-03 -4.6263380e-05 
3.9606993e-03 4.3516550e-03 -7.0899994e-05 
3.9889133e-03 4.3848003e-03 -6.5094340e-05 
3.9370526e-03 4.3195779e-03 -7.2379087e-05 
3.9191213e-03 4.2899982e-03 -6.9361078e-05 
3.9305855e-03 4.2759115e-03 -4.5328241e-05 
3.9821439e-03 4.3350295e-03 -3.3558601e-05 
4.0063458e-03 4.3720691e-03 -3.5345038e-05 
3.9580050e-03 4.3025939e-03 -3.5324261e-05 
3.9015335e-03 4.2555658e-03 -6.2144325e-05 
4.0232399e-03 4.4240812e-03 -5.7209971e-05 
4.0328125e-03 4.4179908e-03 -4.1554300e-05 
3.9410233e-03 4.3237978e-03 -7.1227252e-05 
3.9626989e-03 4.3067629e-03 -3.3284177e-05 
3.9004621e-03 4.2634821e-03 -6.9586356e-05 
3.9120563e-03 4.2491737e-03 -4.5236429e-05 
3.9711823e-03 4.3577463e-03 -6.3860454e-05 
3.9169523e-03 4.2912010e-03 -7.2780269e-05 
3.9877337e-03 4.3456587e-03 -3.5589987e-05 
3.9381511e-03 4.2737601e-03 -3.5072539e-05 
4.1341558e-03 4.5862538e-03 -5.9408929e-05 
3.8828680e-03 4.2287288e-03 -6.2132422e-05 
4.1024280e-03 4.5406665e-03 -5.9410744e-05 
3.9502559e-03 4.3295813e-03 -6.5361332e-05 
3.9679245e-03 4.3163435e-03 -3.4906967e-05 
3.9209761e-03 4.2953975e-03 -7.1555376e-05 
3.8915304e-03 4.2211460e-03 -4.6382702e-05 
3.8816654e-03 4.2367708e-03 -6.9820228e-05 
3.9428980e-03 4.2779776e-03 -3.3014156e-05 
3.8964690e-03 4.2622816e-03 -7.3182018e-05 
3.9179339e-03 4.2443955e-03 -3.4810408e-05 
4.0705381e-03 4.4948473e-03 -5.9409816e-05 
3.9857309e-03 4.3701376e-03 -5.7173289e-05 
3.8640748e-03 4.2017251e-03 -6.2120220e-05 
3.9927717e-03 4.3604118e-03 -4.1487820e-05 
3.9318353e-03 4.3014400e-03 -6.4054053e-05 
3.9005463e-03 4.2664474e-03 -7.1876348e-05 
3.8627747e-03 4.2099031e-03 -7.0036644e-05 
3.8746218e-03 4.1951556e-03 -4.5042074e-05 
3.9485884e-03 4.2889370e-03 -3.5184228e-05 
3.9227111e-03 4.2486475e-03 -3.2736025e-05 
3.8755897e-03 4.2327861e-03 -7.3581301e-05 
4.0384880e-03 4.4487622e-03 -5.9405233e-05 
3.8973193e-03 4.2144679e-03 -3.4558278e-05 
3.8451860e-03 4.1745333e-03 -6.2093306e-05 
3.9101266e-03 4.2722002e-03 -6.5595581e-05 
3.9280448e-03 4.2585311e-03 -3.4475506e-05 
3.8437531e-03 4.1828537e-03 -7.0265029e-05 
3.8557425e-03 4.1679009e-03 -4.4950888e-05 
3.8797252e-03 4.2369254e-03 -7.2195609e-05 
3.9021557e-03 4.2187758e-03 -3.2469092e-05 
3.9457912e-03 4.3126871e-03 -5.7136742e-05 
3.8543015e-03 4.2027039e-03 -7.3977324e-05 
3.9549260e-03 4.3058251e-03 -4.1304953e-05 
3.8763294e-03 4.1839974e-03 -3.4309520e-05 
4.0062959e-03 4.4024820e-03 -5.9418850e-05 
3.8261588e-03 4.1472027e-03 -6.2071173e-05 
3.8410532e-03 4.1446560e-03 -4.3241780e-05 
3.8246256e-03 4.1556587e-03 -7.0470029e-05 
3.8909821e-03 4.2429296e-03 -6.4211243e-05 
3.9079501e-03 4.2300932e-03 -3.4795787e-05 
3.8584943e-03 4.2068330e-03 -7.2508941e-05 
3.8811932e-03 4.1883397e-03 -3.2189459e-05 
3.8326199e-03 4.1720630e-03 -7.4370480e-05 
3.8070309e-03 4.1196961e-03 -6.2038802e-05 
3.8549236e-03 4.1529182e-03 -3.4051798e-05 
3.9739544e-03 4.3559759e-03 -5.9412785e-05 
3.8684544e-03 4.2125694e-03 -6.5792068e-05 
3.8222754e-03 4.1167550e-03 -4.2499658e-05 
3.8053868e-03 4.1282834e-03 -7.0659626e-05 
3.8866361e-03 4.1985526e-03 -3.4057757e-05 
3.9063832e-03 4.2559030e-03 -5.7014302e-05 
3.8368793e-03 4.1761491e-03 -7.2825562e-05 
3.9157053e-03 4.2496650e-03 -4.1430649e-05 
3.8598464e-03 4.1573374e-03 -3.1944110e-05 
3.7877988e-03 4.0920153e-03 -6.1985986e-05 
3.8105000e-03 4.1408059e-03 -7.4774216e-05 
3.8331114e-03 4.1212854e-03 -3.3804095e-05 
3.7860151e-03 4.1007483e-03 -7.0866117e-05 
3.8019447e-03 4.0873070e-03 -4.2294723e-05 
3.9415285e-03 4.3093590e-03 -5.9399503e-05 
3.8485606e-03 4.1821194e-03 -6.4317108e-05 
3.8657577e-03 4.1690394e-03 -3.4417484e-05 
3.8148386e-03 4.1448702e-03 -7.3107927e-05 
3.7684375e-03 4.0641995e-03 -6.1948391e-05 
3.8380788e-03 4.1257506e-03 -3.1677868e-05 
3.7879604e-03 4.1089407e-03 -7.5157484e-05 
3.8108835e-03 4.0890598e-03 -3.3555705e-05 
3.7665530e-03 4.0730676e-03 -7.1056296e-05 
3.7805552e-03 4.0572276e-03 -4.2786502e-05 
3.8251812e-03 4.1505750e-03 -6.5930086e-05 
3.8436642e-03 4.1363258e-03 -3.3648390e-05 
3.7489808e-03 4.0362445e-03 -6.1904575e-05 
3.8580524e-03 4.1865367e-03 -5.7078847e-05 
3.7923802e-03 4.1129896e-03 -7.3380754e-05 
3.8676125e-03 4.1800411e-03 -4.1002429e-05 
3.8159043e-03 4.0935948e-03 -3.1421147e-05 
3.9089601e-03 4.2625219e-03 -5.9370657e-05 
3.7649856e-03 4.0764553e-03 -7.5536234e-05 
3.7882235e-03 4.0562283e-03 -3.3310855e-05 
3.7470015e-03 4.0452592e-03 -7.1230264e-05 
3.7596505e-03 4.0292805e-03 -4.4403983e-05 
3.8045270e-03 4.1189506e-03 -6.4372340e-05 
3.7294200e-03 4.0081223e-03 -6.1866827e-05 
3.8219662e-03 4.1057244e-03 -3.4085089e-05 
3.7694953e-03 4.0804953e-03 -7.3645679e-05 
3.7933346e-03 4.0608407e-03 -3.1151318e-05 
3.7272931e-03 4.0172413e-03 -7.1439135e-05 
3.7381609e-03 3.9997147e-03 -4.5397679e-05 
3.7415645e-03 4.0433393e-03 -7.5906340e-05 
3.8763075e-03 4.2155473e-03 -5.9345493e-05 
3.7651691e-03 4.0228162e-03 -3.3046988e-05 
3.7802784e-03 4.0862146e-03 -6.6010456e-05 
3.7096965e-03 3.9798254e-03 -6.1838953e-05 
3.7990655e-03 4.0718121e-03 -3.3277822e-05 
3.7363356e-03 4.0154369e-03 -5.9811529e-05 
3.8160996e-03 4.1262386e-03 -5.7049449e-05 
3.8257767e-03 4.1197427e-03 -4.0842566e-05 
3.7461829e-03 4.0473943e-03 -7.3905729e-05 
3.7703312e-03 4.0274998e-03 -3.0883355e-05 
3.7074699e-03 3.9890674e-03 -7.1624840e-05 
3.7203778e-03 3.9726803e-03 -4.4194567e-05 
3.7176879e-03 4.0096086e-03 -7.6283635e-05 
3.7416746e-03 3.9887358e-03 -3.2782504e-05 
3.6898777e-03 3.9513544e-03 -6.1781531e-05 
3.8436281e-03 4.1685547e-03 -5.9327616e-05 
3.7588200e-03 4.0533510e-03 -6.4372092e-05 
3.7765189e-03 4.0400848e-03 -3.3778379e-05 
3.7048410e-03 3.9479546e-03 -4.2266685e-05 
3.6875748e-03 3.9607687e-03 -7.1776405e-05 
3.7224002e-03 4.0136115e-03 -7.4157535e-05 
3.7468718e-03 3.9935024e-03 -3.0609226e-05 
3.6699723e-03 3.9227288e-03 -6.1698796e-05 
3.6933518e-03 3.9751804e-03 -7.6650431e-05 
3.7176907e-03 3.9540180e-03 -3.2546832e-05 
3.7336485e-03 4.0193591e-03 -6.6027067e-05 
3.7756809e-03 4.0675728e-03 -5.6536304e-05 
3.7527338e-03 4.0048901e-03 -3.2933909e-05 
3.7847671e-03 4.0620454e-03 -4.1793166e-05 
3.6675401e-03 3.9323051e-03 -7.1946357e-05 
3.6807477e-03 3.9155181e-03 -4.3928459e-05 
3.8109883e-03 4.1216533e-03 -5.9299724e-05 
3.6981667e-03 3.9791712e-03 -7.4392607e-05 
3.7229850e-03 3.9588963e-03 -3.0380474e-05 
3.6499626e-03 3.8940117e-03 -6.1628220e-05 
3.6685297e-03 3.9400910e-03 -7.6983211e-05 
3.6932584e-03 3.9186785e-03 -3.2325879e-05 
3.6474410e-03 3.9037175e-03 -7.2084549e-05 
3.6607718e-03 3.8867702e-03 -4.3826800e-05 
3.7113507e-03 3.9851903e-03 -6.4286716e-05 
3.7293418e-03 3.9720307e-03 -3.3484557e-05 
3.6298342e-03 3.8651896e-03 -6.1576742e-05 
3.6734657e-03 3.9440864e-03 -7.4591168e-05 
3.6986342e-03 3.9236499e-03 -3.0115158e-05 
3.7782528e-03 4.0745763e-03 -5.9227154e-05 
3.6432354e-03 3.9043457e-03 -7.7302153e-05 
3.6272267e-03 3.8750344e-03 -7.2227012e-05 
3.6406657e-03 3.8578592e-03 -4.3682496e-05 
3.6683704e-03 3.8826733e-03 -3.2046541e-05 
3.7287734e-03 3.9999965e-03 -5.6300174e-05 
3.6852323e-03 3.9498806e-03 -6.5975190e-05 
3.7378012e-03 3.9949464e-03 -4.2017436e-05 
3.7046913e-03 3.9355224e-03 -3.2596385e-05 
3.6096254e-03 3.8361517e-03 -6.1505678e-05 
3.6483167e-03 3.9083203e-03 -7.4803815e-05 
3.6737921e-03 3.8877451e-03 -2.9858997e-05 
3.6068994e-03 3.8461254e-03 -7.2383489e-05 
3.6205100e-03 3.8287910e-03 -4.3567845e-05 
3.6174543e-03 3.8678728e-03 -7.7641365e-05 
3.6429954e-03 3.8460153e-03 -3.1812906e-05 
3.7455237e-03 4.0275413e-03 -5.9174927e-05 
3.5892820e-03 3.8070180e-03 -6.1443905e-05 
3.6620777e-03 3.9143898e-03 -6.4142718e-05 
3.6803272e-03 3.9014101e-03 -3.3246226e-05 
3.5864734e-03 3.8171320e-03 -7.2533992e-05 
3.6002018e-03 3.7995875e-03 -4.3427939e-05 
3.6226383e-03 3.8718220e-03 -7.4968862e-05 
3.6485156e-03 3.8511925e-03 -2.9628573e-05 
3.5688684e-03 3.7777119e-03 -6.1349820e-05 
3.5911805e-03 3.8307081e-03 -7.7920478e-05 
3.6171046e-03 3.8086630e-03 -3.1554369e-05 
3.6800641e-03 3.9298325e-03 -5.6050802e-05 
3.6890523e-03 3.9253607e-03 -4.2280779e-05 
3.6367129e-03 3.8779345e-03 -6.3982960e-05 
3.7128560e-03 3.9806096e-03 -5.9124272e-05 
3.5659750e-03 3.7879779e-03 -7.2625931e-05 
3.5798431e-03 3.7703014e-03 -4.3336913e-05 
3.6550995e-03 3.8651696e-03 -3.3118104e-05 
3.5965217e-03 3.8346655e-03 -7.5117052e-05 
3.6227154e-03 3.8139517e-03 -2.9394987e-05 
3.5483390e-03 3.7483675e-03 -6.1278057e-05 
3.5643510e-03 3.7928119e-03 -7.8213809e-05 
3.5907931e-03 3.7706471e-03 -3.1315005e-05 
3.5453863e-03 3.7588114e-03 -7.2717361e-05 
3.5593510e-03 3.7408916e-03 -4.3191576e-05 
3.6108992e-03 3.8408104e-03 -6.3845917e-05 
3.5729588e-03 3.7648478e-03 -4.6752411e-05 
3.6294356e-03 3.8282801e-03 -3.3047614e-05 
3.5277426e-03 3.7188511e-03 -6.1163839e-05 
3.6800841e-03 3.9334581e-03 -5.9034352e-05 
3.6378370e-03 3.8695405e-03 -5.6222543e-05 
3.5698870e-03 3.7968012e-03 -7.5174401e-05 
3.6472036e-03 3.8639514e-03 -4.1160216e-05 
3.5964730e-03 3.7761116e-03 -2.9162284e-05 
3.5246806e-03 3.7294158e-03 -7.2770097e-05 
3.5387862e-03 3.7113705e-03 -4.3058215e-05 
3.5371389e-03 3.7542940e-03 -7.8386205e-05 
3.5639259e-03 3.7319956e-03 -3.1154999e-05 
3.5070563e-03 3.6892944e-03 -6.1091407e-05 
3.5846233e-03 3.8030255e-03 -6.3706197e-05 
3.6032845e-03 3.7907464e-03 -3.2952648e-05 
3.5427974e-03 3.7582675e-03 -7.5277538e-05 
3.5039524e-03 3.6999714e-03 -7.2855371e-05 
3.5181781e-03 3.6817594e-03 -4.2915923e-05 
3.5697152e-03 3.7375875e-03 -2.8908704e-05 
3.6473104e-03 3.8865185e-03 -5.9010621e-05 
3.5093334e-03 3.7150192e-03 -7.8660931e-05 
3.4862920e-03 3.6595911e-03 -6.0985389e-05 
3.6164809e-03 3.8234750e-03 -4.3979460e-05 
3.6098766e-03 3.8280578e-03 -5.5081742e-05 
3.5365901e-03 3.6926561e-03 -3.0873765e-05 
3.5578574e-03 3.7645660e-03 -6.3500258e-05 
3.5766135e-03 3.7525138e-03 -3.2906115e-05 
3.4830896e-03 3.6704030e-03 -7.2948904e-05 
3.4974359e-03 3.6520285e-03 -4.2773248e-05 
3.5151660e-03 3.7189818e-03 -7.5357391e-05 
3.5424903e-03 3.6983667e-03 -2.8685570e-05 
3.4653849e-03 3.6297478e-03 -6.0869181e-05 
3.6146415e-03 3.8396062e-03 -5.8879719e-05 
3.4809455e-03 3.6749607e-03 -7.8917619e-05 
3.5087222e-03 3.6525642e-03 -3.0594387e-05 
3.4620934e-03 3.6407223e-03 -7.3023046e-05 
3.4765366e-03 3.6221582e-03 -4.2647232e-05 
3.5839297e-03 3.7768004e-03 -4.3897318e-05 
3.5773597e-03 3.7814472e-03 -5.4986693e-05 
3.5299275e-03 3.7245753e-03 -6.3322033e-05 
3.5485595e-03 3.7122767e-03 -3.2775446e-05 
3.4802598e-03 3.6408692e-03 -5.3041702e-05 
3.4444297e-03 3.5998470e-03 -6.0725779e-05 
3.4868428e-03 3.6789412e-03 -7.5527780e-05 
3.5146121e-03 3.6582632e-03 -2.8477956e-05 
3.4410898e-03 3.6107870e-03 -7.2883464e-05 
3.4555274e-03 3.5923475e-03 -4.2714459e-05 
3.4525751e-03 3.6349010e-03 -7.9009260e-05 
3.5820834e-03 3.7929125e-03 -5.8739206e-05 
3.4810635e-03 3.6129262e-03 -3.0422247e-05 
3.4237402e-03 3.5704395e-03 -6.0641964e-05 
3.5003482e-03 3.6829689e-03 -6.3715474e-05 
3.5201013e-03 3.6710226e-03 -3.2299609e-05 
3.5516471e-03 3.7306037e-03 -4.3821823e-05 
3.5451252e-03 3.7352738e-03 -5.4843902e-05 
3.4522349e-03 3.6011022e-03 -5.3090938e-05 
3.4204209e-03 3.5813749e-03 -7.2720381e-05 
3.4583048e-03 3.6388496e-03 -7.5831689e-05 
3.4347654e-03 3.5628974e-03 -4.2736836e-05 
3.4869758e-03 3.6185661e-03 -2.8233715e-05 
3.4033724e-03 3.5413534e-03 -6.0478094e-05 
3.4249665e-03 3.5959238e-03 -7.9100326e-05 
3.4540624e-03 3.5743054e-03 -3.0262570e-05 
3.5497481e-03 3.7465645e-03 -5.8611873e-05 
3.4715661e-03 3.6428759e-03 -6.4361986e-05 
3.4925092e-03 3.6310561e-03 -3.1840664e-05 
3.3999272e-03 3.5522373e-03 -7.2628573e-05 
3.4142619e-03 3.5338725e-03 -4.2771924e-05 
3.5037550e-03 3.6775246e-03 -5.5765133e-05 
3.5135928e-03 3.6723714e-03 -4.0685933e-05 
3.4305148e-03 3.5998540e-03 -7.6125318e-05 
3.4599495e-03 3.5797406e-03 -2.7979959e-05 
3.4181927e-03 3.5527060e-03 -5.2961383e-05 
3.3832241e-03 3.5127264e-03 -6.0359118e-05 
3.4276904e-03 3.5365566e-03 -3.0055888e-05 
3.3979632e-03 3.5578504e-03 -7.9169389e-05 
3.3797703e-03 3.5235360e-03 -7.2483977e-05 
3.3940314e-03 3.5052772e-03 -4.2807522e-05 
3.4655032e-03 3.5920229e-03 -3.1375468e-05 
3.4434737e-03 3.6037774e-03 -6.4989428e-05 
3.5177257e-03 3.7008091e-03 -5.8528014e-05 
3.3632817e-03 3.4844629e-03 -6.0261860e-05 
3.4335123e-03 3.5418537e-03 -2.7729655e-05 
3.4033451e-03 3.5618306e-03 -7.6408935e-05 
3.4815518e-03 3.6444603e-03 -5.4689786e-05 
3.4805269e-03 3.6257489e-03 -4.1126768e-05 
3.3598051e-03 3.4952136e-03 -7.2330149e-05 
3.3727735e-03 3.4758588e-03 -4.3283995e-05 
3.4019244e-03 3.4996313e-03 -2.9749903e-05 
3.3716250e-03 3.5208326e-03 -7.9324578e-05 
3.3719311e-03 3.4898971e-03 -5.4986966e-05 
3.3435908e-03 3.4564498e-03 -6.0084349e-05 
3.4390085e-03 3.5538555e-03 -3.1000382e-05 
3.4227255e-03 3.5699124e-03 -6.1556668e-05 
3.4075889e-03 3.5048712e-03 -2.7586821e-05 
3.3768571e-03 3.5246836e-03 -7.6662567e-05 
3.3400524e-03 3.4671505e-03 -7.2140130e-05 
3.4861632e-03 3.6557824e-03 -5.8500711e-05 
3.3541918e-03 3.4489965e-03 -4.2796157e-05 
3.3691479e-03 3.4793376e-03 -4.9871262e-05 
3.4516149e-03 3.5844867e-03 -4.0964835e-05 
3.3241273e-03 3.4288813e-03 -5.9948135e-05 
3.3765472e-03 3.4636348e-03 -2.9681107e-05 
3.3458769e-03 3.4845641e-03 -7.9330697e-05 
3.4501897e-03 3.5997813e-03 -5.4555090e-05 
3.4131240e-03 3.5166549e-03 -3.0533705e-05 
3.3893117e-03 3.5284318e-03 -6.5962682e-05 
3.3205519e-03 3.4395284e-03 -7.2029528e-05 
3.3346640e-03 3.4214447e-03 -4.2798325e-05 
3.3822735e-03 3.4687626e-03 -2.7336204e-05 
3.3509862e-03 3.4884342e-03 -7.6841607e-05 
3.3373849e-03 3.4336401e-03 -4.9180078e-05 
3.3048580e-03 3.4016455e-03 -5.9815240e-05 
3.4547832e-03 3.6111111e-03 -5.8472884e-05 
3.3518062e-03 3.4284026e-03 -2.9421408e-05 
3.3206837e-03 3.4492135e-03 -7.9388934e-05 
3.4189939e-03 3.5350681e-03 -3.8524056e-05 
3.4043398e-03 3.5373862e-03 -5.6524375e-05 
3.3012468e-03 3.4122295e-03 -7.1869486e-05 
3.3877993e-03 3.4802372e-03 -3.0127856e-05 
3.3183335e-03 3.3948468e-03 -3.9970848e-05 
3.3631918e-03 3.4921982e-03 -6.6465000e-05 
3.2857459e-03 3.3746918e-03 -5.9696969e-05 
3.3574456e-03 3.4333845e-03 -2.7067474e-05 
3.3256656e-03 3.4530922e-03 -7.7005359e-05 
3.2961462e-03 3.3673032e-03 -4.2796448e-05 
3.2808273e-03 3.3820758e-03 -7.0670918e-05 
3.3275683e-03 3.3939476e-03 -2.9218296e-05 
3.2960025e-03 3.4146428e-03 -7.9441728e-05 
3.4236526e-03 3.5667664e-03 -5.8332302e-05 
3.2976198e-03 3.3881490e-03 -5.7198078e-05 
3.3629967e-03 3.4447222e-03 -2.9754437e-05 
3.3375665e-03 3.4567267e-03 -6.6946443e-05 
3.2668714e-03 3.3481556e-03 -5.9600072e-05 
3.3330861e-03 3.3989176e-03 -2.6922326e-05 
3.3882656e-03 3.5116202e-03 -5.4331074e-05 
3.3945432e-03 3.5069361e-03 -4.3716329e-05 
3.2849903e-03 3.3478839e-03 -3.9879687e-05 
3.3008342e-03 3.4184167e-03 -7.7121076e-05 
3.2662975e-03 3.3645341e-03 -7.2822084e-05 
3.3711307e-03 3.4626559e-03 -3.4835273e-05 
3.3534039e-03 3.4677954e-03 -5.8347643e-05 
3.3037120e-03 3.3602729e-03 -2.9089606e-05 
3.2720005e-03 3.3808732e-03 -7.9280406e-05 
3.2482715e-03 3.3219436e-03 -5.9438102e-05 
3.3386643e-03 3.4099345e-03 -2.9374967e-05 
3.3126136e-03 3.4221925e-03 -6.7365152e-05 
3.3926060e-03 3.5226003e-03 -5.8193506e-05 
3.2664961e-03 3.3204642e-03 -3.8658098e-05 
3.2459339e-03 3.3361292e-03 -7.2833260e-05 
3.3092629e-03 3.3650678e-03 -2.6736967e-05 
3.2766531e-03 3.3847028e-03 -7.7284159e-05 
3.2298777e-03 3.2960044e-03 -5.9275437e-05 
3.3576216e-03 3.4681719e-03 -5.4171138e-05 
3.3638165e-03 3.4635155e-03 -4.3678847e-05 
3.2804110e-03 3.3272326e-03 -2.8828352e-05 
3.2484611e-03 3.3479871e-03 -7.9269943e-05 
3.3147954e-03 3.3758923e-03 -2.9035504e-05 
3.2258616e-03 3.3075470e-03 -7.2418225e-05 
3.2818811e-03 3.3818963e-03 -6.9525384e-05 
3.3284456e-03 3.4017735e-03 -3.4267228e-05 
3.2430550e-03 3.2875249e-03 -3.8598049e-05 
3.2858467e-03 3.3319930e-03 -2.6575852e-05 
3.2530103e-03 3.3516847e-03 -7.7355762e-05 
3.2115863e-03 3.2703967e-03 -5.9116799e-05 
3.3619762e-03 3.4790537e-03 -5.7997328e-05 
3.2319094e-03 3.2952130e-03 -5.6421391e-05 
3.2575175e-03 3.2950176e-03 -2.8623257e-05 
3.3030121e-03 3.3959141e-03 -5.7580983e-05 
3.2075159e-03 3.2790354e-03 -7.0075010e-05 
3.2253866e-03 3.3156550e-03 -7.9232617e-05 
3.2216848e-03 3.2631143e-03 -4.2724576e-05 
3.2913894e-03 3.3426166e-03 -2.8689035e-05 
3.3273189e-03 3.4252426e-03 -5.3948668e-05 
3.3334687e-03 3.4206116e-03 -4.3532786e-05 
3.2642491e-03 3.3553392e-03 -6.8159017e-05 
3.2275063e-03 3.2622397e-03 -3.5771405e-05 
3.1935277e-03 3.2451262e-03 -5.8979946e-05 
3.2629054e-03 3.2996638e-03 -2.6326528e-05 
3.2297987e-03 3.3193959e-03 -7.7423509e-05 
3.2056039e-03 3.2412708e-03 -4.3123637e-05 
3.1898997e-03 3.2552760e-03 -7.0643284e-05 
3.2350561e-03 3.2633415e-03 -2.8428483e-05 
3.2027671e-03 3.2841684e-03 -7.9138365e-05 
3.3315730e-03 3.4360457e-03 -5.7855857e-05 
3.2683709e-03 3.3100150e-03 -2.8369737e-05 
3.1756691e-03 3.2201228e-03 -5.8814454e-05 
3.2347902e-03 3.3167934e-03 -7.0110174e-05 
3.1998325e-03 3.2263412e-03 -3.7779970e-05 
3.2845873e-03 3.3405516e-03 -3.4564127e-05 
3.2403367e-03 3.2679350e-03 -2.6162643e-05 
3.2155395e-03 3.2599033e-03 -4.6715246e-05 
3.1750482e-03 3.2369765e-03 -7.2430317e-05 
3.2972565e-03 3.3827894e-03 -5.3836306e-05 
3.2070780e-03 3.2878001e-03 -7.7490491e-05 
3.3033541e-03 3.3781936e-03 -4.3502638e-05 
3.2129574e-03 3.2324425e-03 -2.8317490e-05 
3.2554052e-03 3.3299206e-03 -5.8122812e-05 