# vtk DataFile Version 4.0
vtk output
ASCII
DATASET UNSTRUCTURED_GRID
POINTS 4496 float
-4.3633327e-01 9.6409470e-01 4.4200001e+01 
-4.3633258e-01 9.6409065e-01 4.4074627e+01 
-3.2152572e-01 9.1279918e-01 4.4200001e+01 
-3.8534868e-01 8.4052670e-01 4.4200001e+01 
-3.9589554e-01 8.5545403e-01 4.4010014e+01 
-3.2616228e-01 9.1667932e-01 4.4011734e+01 
-4.3633190e-01 9.6408653e-01 4.3948376e+01 
-2.1293370e-01 8.4677851e-01 4.4200001e+01 
-2.9042658e-01 7.3813015e-01 4.4200001e+01 
-2.1010752e-01 8.4669363e-01 4.4073502e+01 
-2.8908840e-01 7.3604190e-01 4.4072292e+01 
-3.9589015e-01 8.5505831e-01 4.3883316e+01 
-3.2487559e-01 9.1697580e-01 4.3885036e+01 
-2.0722924e-01 8.4660655e-01 4.3944645e+01 
-1.1981077e-01 7.7773046e-01 4.4200001e+01 
-2.8772619e-01 7.3391593e-01 4.3942276e+01 
-4.3633121e-01 9.6408242e-01 4.3821228e+01 
-1.9739023e-01 6.6468561e-01 4.4200001e+01 
-2.9444304e-01 7.8727525e-01 4.3879974e+01 
-8.7554991e-02 7.5255024e-01 4.4042213e+01 
-1.6445170e-01 6.4084798e-01 4.4041008e+01 
-3.2357255e-01 9.1726828e-01 4.3757431e+01 
-3.9587301e-01 8.5463828e-01 4.3755711e+01 
-2.0429766e-01 8.4651643e-01 4.3813354e+01 
-2.8633916e-01 7.3175091e-01 4.3809875e+01 
-2.6899619e-02 6.8901783e-01 4.4200001e+01 
-1.0567340e-01 7.7152997e-01 4.3875790e+01 
-4.3633053e-01 9.6407831e-01 4.3693161e+01 
-8.7133333e-02 5.9509218e-01 4.4200001e+01 
-1.8777622e-01 6.5475601e-01 4.3873402e+01 
-2.0131156e-01 8.4642249e-01 4.3679543e+01 
-3.2225290e-01 9.1755641e-01 4.3628902e+01 
-3.9584404e-01 8.5419410e-01 4.3627178e+01 
-1.0114321e-03 6.6670936e-01 4.3939713e+01 
-2.8492665e-01 7.2954547e-01 4.3675007e+01 
-1.0131179e-01 7.7015632e-01 4.3743176e+01 
-6.0682178e-02 5.7631296e-01 4.3938457e+01 
3.9444737e-02 6.2338209e-01 4.4053139e+01 
-1.8470748e-01 6.5131217e-01 4.3739727e+01 
-7.0938184e-03 5.4737431e-01 4.4052326e+01 
-4.3632981e-01 9.6407413e-01 4.3564159e+01 
7.6947339e-02 5.8804804e-01 4.4200001e+01 
-1.2721874e-02 6.8194175e-01 4.3817982e+01 
-7.7214435e-02 5.8474159e-01 4.3819649e+01 
4.0195532e-02 5.2425718e-01 4.4200001e+01 
-1.9826968e-01 8.4632379e-01 4.3543118e+01 
-9.6842363e-02 7.6872379e-01 4.3607994e+01 
-3.2091641e-01 9.1783977e-01 4.3499420e+01 
-3.9580306e-01 8.5372573e-01 4.3497700e+01 
-2.8348783e-01 7.2729832e-01 4.3537586e+01 
-1.8155001e-01 6.4778340e-01 4.3603539e+01 
1.5678726e-01 5.2239102e-01 4.4060219e+01 
1.0298219e-02 6.6009766e-01 4.3674484e+01 
1.3250886e-01 4.7546524e-01 4.4058990e+01 
-4.3632913e-01 9.6407002e-01 4.3434200e+01 
-5.0139543e-02 5.6696451e-01 4.3671154e+01 
1.3504514e-01 5.4209155e-01 4.3856747e+01 
1.0361936e-01 4.8715758e-01 4.3855240e+01 
2.0846681e-01 4.8028421e-01 4.4200001e+01 
1.9279444e-01 4.4799727e-01 4.4200001e+01 
-9.2261828e-02 7.6722860e-01 4.3470158e+01 
-1.4701239e-03 6.7547697e-01 4.3552124e+01 
-1.9517080e-01 8.4621930e-01 4.3403992e+01 
-3.1956279e-01 9.1811794e-01 4.3368977e+01 
-3.9574999e-01 8.5323322e-01 4.3367252e+01 
-1.7830023e-01 6.4416617e-01 4.3464752e+01 
-6.7131944e-02 5.7555372e-01 4.3547829e+01 
-2.8202194e-01 7.2500783e-01 4.3397518e+01 
-4.3632844e-01 9.6406585e-01 4.3303261e+01 
1.5138821e-01 5.3037512e-01 4.3609200e+01 
1.2119007e-01 4.7490793e-01 4.3606068e+01 
-8.7566733e-02 7.6566672e-01 4.3329563e+01 
-1.7495437e-01 6.4045686e-01 4.3323273e+01 
-3.1819177e-01 9.1839045e-01 4.3237537e+01 
-3.9568463e-01 8.5271639e-01 4.3235813e+01 
2.2269404e-02 6.5294570e-01 4.3398811e+01 
-1.9201367e-01 8.4610778e-01 4.3262066e+01 
-3.8899176e-02 5.5709696e-01 4.3393635e+01 
-2.8052819e-01 7.2267252e-01 4.3254715e+01 
3.7877345e-01 3.8273901e-01 4.4200001e+01 
-4.3632776e-01 9.6406174e-01 4.3171322e+01 
3.9241230e-01 3.7329337e-01 4.3965439e+01 
1.0283732e-02 6.6872352e-01 4.3271511e+01 
-5.6385640e-02 5.6585240e-01 4.3265472e+01 
-8.2753494e-02 7.6403379e-01 4.3186119e+01 
-4.0345609e-01 8.6371827e-01 4.3104889e+01 
-3.1680310e-01 9.1865683e-01 4.3105087e+01 
-1.7150842e-01 6.3665158e-01 4.3179005e+01 
-1.8879703e-01 8.4598809e-01 4.3117241e+01 
-2.7900568e-01 7.2029078e-01 4.3109074e+01 
4.0610775e-01 3.6380205e-01 4.3729839e+01 
1.6776134e-01 5.1882964e-01 4.3331150e+01 
-4.3632707e-01 9.6405768e-01 4.3038357e+01 
1.4031014e-01 4.6124566e-01 4.3307755e+01 
3.4952711e-02 6.4519531e-01 4.3111935e+01 
-7.7818394e-02 7.6232505e-01 4.3039719e+01 
-3.1539652e-01 9.1891652e-01 4.2971603e+01 
-3.9551663e-01 8.5160977e-01 4.2969879e+01 
-2.6899155e-02 5.4666573e-01 4.3105160e+01 
-1.6795819e-01 6.3274628e-01 4.3031849e+01 
-1.8551964e-01 8.4585863e-01 4.2969406e+01 
4.1985780e-01 3.5425979e-01 4.3493168e+01 
-2.7745360e-01 7.1786088e-01 4.2960495e+01 
-4.3632638e-01 9.6405357e-01 4.2904346e+01 
2.2723136e-02 6.6139150e-01 4.2979332e+01 
-4.4916678e-02 5.5559248e-01 4.2971806e+01 
-3.1397179e-01 9.1916907e-01 4.2837063e+01 
-3.9541367e-01 8.5101974e-01 4.2835335e+01 
-7.2757579e-02 7.6053542e-01 4.2890255e+01 
-1.6429928e-01 6.2873662e-01 4.2881699e+01 
1.8463810e-01 5.0694346e-01 4.3035332e+01 
-1.8218029e-01 8.4571803e-01 4.2818455e+01 
1.5503895e-01 4.5003417e-01 4.3027725e+01 
-2.7587104e-01 7.1538109e-01 4.2808868e+01 
4.3366045e-01 3.4466109e-01 4.3255390e+01 
-4.3632573e-01 9.6404958e-01 4.2769268e+01 
-3.8429454e-01 8.3484912e-01 4.2710606e+01 
-3.1252861e-01 9.1941386e-01 4.2701439e+01 
4.8404284e-02 6.3678014e-01 4.2813030e+01 
-1.4070326e-02 5.3562075e-01 4.2804932e+01 
-6.7567028e-02 7.5865942e-01 4.2737610e+01 
-1.6052702e-01 6.2461799e-01 4.2728443e+01 
-1.7877772e-01 8.4556442e-01 4.2664265e+01 
-4.3632504e-01 9.6404558e-01 4.2633099e+01 
-2.7425703e-01 7.1284944e-01 4.2654083e+01 
4.4751364e-01 3.3500037e-01 4.3016472e+01 
3.5901129e-02 6.5341437e-01 4.2674721e+01 
-3.7959340e-01 8.2794034e-01 4.2568317e+01 
-3.1106678e-01 9.1965032e-01 4.2564713e+01 
-3.2659348e-02 5.4472327e-01 4.2665997e+01 
2.0396979e-01 4.9291667e-01 4.2740131e+01 
-6.2242586e-02 7.5669110e-01 4.2581669e+01 
1.7765003e-01 4.3475360e-01 4.2732578e+01 
-1.5663649e-01 6.2038553e-01 4.2571964e+01 
-4.3632439e-01 9.6404165e-01 4.2495808e+01 
-1.7531081e-01 8.4539592e-01 4.2506718e+01 
-2.7261066e-01 7.1026409e-01 4.2496017e+01 
-3.0958602e-01 9.1987789e-01 4.2426853e+01 
-3.7859210e-01 8.2613736e-01 4.2421188e+01 
4.6141517e-01 3.2527190e-01 4.2776375e+01 
6.2686495e-02 6.2762415e-01 4.2501175e+01 
-3.3570320e-04 5.2390522e-01 4.2492062e+01 
-5.6779940e-02 7.5462401e-01 4.2422298e+01 
-4.3632373e-01 9.6403772e-01 4.2357380e+01 
-1.5262254e-01 6.1603409e-01 4.2412144e+01 
-1.7177837e-01 8.4521037e-01 4.2345684e+01 
-2.7093092e-01 7.0762289e-01 4.2334549e+01 
-3.0808610e-01 9.2009580e-01 4.2287842e+01 
-3.8275370e-01 8.3137155e-01 4.2275047e+01 
4.9876589e-02 6.4471585e-01 4.2356720e+01 
-1.9539909e-02 5.3318781e-01 4.2347118e+01 
-4.3632311e-01 9.6403396e-01 4.2217781e+01 
2.1959943e-01 4.8236796e-01 4.2385345e+01 
-5.1174615e-02 7.5245124e-01 4.2259373e+01 
1.9034323e-01 4.2346162e-01 4.2378918e+01 
-1.4847966e-01 6.1155808e-01 4.2248856e+01 
4.7536272e-01 3.1546980e-01 4.2535065e+01 
-1.6817927e-01 8.4500539e-01 4.2181026e+01 
-2.6921678e-01 7.0492369e-01 4.2169544e+01 
-3.0656675e-01 9.2030340e-01 4.2147648e+01 
-3.9470181e-01 8.4769493e-01 4.2145920e+01 
7.7868804e-02 6.1763972e-01 4.2175373e+01 
-4.3632248e-01 9.6403021e-01 4.2076988e+01 
1.4390758e-02 5.1145434e-01 4.2165581e+01 
-4.5421973e-02 7.5016522e-01 4.2092751e+01 
-1.4420210e-01 6.0695171e-01 4.2081959e+01 
-3.0502778e-01 9.2049998e-01 4.2006248e+01 
-4.0175444e-01 8.5747409e-01 4.2004128e+01 
-1.6451253e-01 8.4477836e-01 4.2012604e+01 
4.8935395e-01 3.0558801e-01 4.2292507e+01 
-2.6746723e-01 7.0216429e-01 4.2000870e+01 
6.4714879e-02 6.3520777e-01 4.2024277e+01 
-4.3632188e-01 9.6402657e-01 4.1934975e+01 
-5.4755262e-03 5.2092212e-01 4.2014156e+01 
-2.3078828e-01 8.1064087e-01 4.1931458e+01 
2.3550548e-01 4.7116494e-01 4.2073269e+01 
2.0610523e-01 4.1123796e-01 4.2066772e+01 
-3.9517213e-02 7.4775779e-01 4.1922287e+01 
-1.3978374e-01 6.0220873e-01 4.1911320e+01 
-3.0346894e-01 9.2068475e-01 4.1863613e+01 
-3.9432141e-01 8.4618556e-01 4.1861881e+01 
-1.6077711e-01 8.4452641e-01 4.1840263e+01 
-2.6568118e-01 6.9934219e-01 4.1828377e+01 
-4.3632129e-01 9.6402299e-01 4.1791718e+01 
5.0338638e-01 2.9562023e-01 4.2048656e+01 
9.4028555e-02 6.0672593e-01 4.1834507e+01 
3.0205652e-02 4.9819478e-01 4.1824417e+01 
-3.8116732e-01 8.2744831e-01 4.1725647e+01 
-3.0189002e-01 9.2085695e-01 4.1719719e+01 
-3.3455357e-02 7.4522001e-01 4.1747829e+01 
-1.3521814e-01 5.9732240e-01 4.1736786e+01 
-4.3632072e-01 9.6401960e-01 4.1647179e+01 
-1.5697217e-01 8.4424627e-01 4.1663853e+01 
-2.6385748e-01 6.9645494e-01 4.1651920e+01 
8.0488607e-02 6.2478805e-01 4.1676235e+01 
2.6870471e-01 4.4547972e-01 4.1752304e+01 
9.6269641e-03 5.0785345e-01 4.1665993e+01 
2.4764967e-01 3.8646612e-01 4.1743168e+01 
-3.0029076e-01 9.2101562e-01 4.1574532e+01 
-3.9388368e-01 8.4456980e-01 4.1572796e+01 
5.1745731e-01 2.8556010e-01 4.1803486e+01 
-2.7231261e-02 7.4254233e-01 4.1569210e+01 
-1.3049847e-01 5.9228569e-01 4.1558201e+01 
-4.3632016e-01 9.6401632e-01 4.1501339e+01 
-1.5309690e-01 8.4393430e-01 4.1483204e+01 
-2.6199502e-01 6.9349992e-01 4.1471333e+01 
-2.9867104e-01 9.2115986e-01 4.1428024e+01 
-3.9364263e-01 8.4372103e-01 4.1426289e+01 
1.1125199e-01 5.9476525e-01 4.1477348e+01 
4.7217656e-02 4.8404291e-01 4.1467384e+01 
-4.3631962e-01 9.6401310e-01 4.1354160e+01 
-2.0839609e-02 7.3971421e-01 4.1386261e+01 
-1.2561750e-01 5.8709091e-01 4.1375404e+01 
5.3156406e-01 2.7540097e-01 4.1556946e+01 
-1.4915068e-01 8.4358656e-01 4.1298138e+01 
-2.9703063e-01 9.2128879e-01 4.1280167e+01 
-3.9338648e-01 8.4284443e-01 4.1278431e+01 
-2.6009262e-01 6.9047421e-01 4.1286449e+01 
2.9365057e-01 4.2687622e-01 4.1391586e+01 
9.7278498e-02 6.1333776e-01 4.1311302e+01 
2.7470219e-01 3.6807936e-01 4.1382729e+01 
2.5872495e-02 4.9389899e-01 4.1301384e+01 
-4.3631911e-01 9.6401012e-01 4.1205620e+01 
-1.4274905e-02 7.3672432e-01 4.1198803e+01 
-1.2056758e-01 5.8173001e-01 4.1188221e+01 
-2.9536936e-01 9.2140132e-01 4.1130928e+01 
[...]
POINT_DATA 4496
FIELD FieldData 5
DISPLACEMENT 3 4496  float
2.4487482e-01 2.2402345e-01 -2.4015813e-03 
2.4353449e-01 2.2266947e-01 -2.3870652e-03 
2.4491858e-01 2.2412598e-01 -3.0766495e-03 
2.4499325e-01 2.2407490e-01 -1.6138970e-03 
2.4294811e-01 2.2201312e-01 -1.6401658e-03 
2.4290232e-01 2.2208852e-01 -3.0471529e-03 
2.4218480e-01 2.2130606e-01 -2.3724430e-03 
2.4497719e-01 2.2422402e-01 -3.5263472e-03 
2.4508840e-01 2.2416320e-01 -1.5248078e-03 
2.4362472e-01 2.2286032e-01 -3.5410638e-03 
2.4372505e-01 2.2278528e-01 -1.5018471e-03 
2.4159403e-01 2.2064491e-01 -1.6213221e-03 
2.4154752e-01 2.2072136e-01 -3.0494824e-03 
2.4224709e-01 2.2147119e-01 -3.5560278e-03 
2.4503967e-01 2.2430885e-01 -3.7778574e-03 
2.4233708e-01 2.2138248e-01 -1.4784939e-03 
2.4082558e-01 2.1993302e-01 -2.3577060e-03 
2.4515522e-01 2.2424822e-01 -1.7279258e-03 
2.4161901e-01 2.2070070e-01 -1.9751547e-03 
2.4337566e-01 2.2263421e-01 -3.8331177e-03 
2.4347691e-01 2.2256105e-01 -1.8048371e-03 
2.4018309e-01 2.1934451e-01 -3.0517774e-03 
2.4023031e-01 2.1926700e-01 -1.6022676e-03 
2.4084345e-01 2.2005585e-01 -3.5712321e-03 
2.4092364e-01 2.1995397e-01 -1.4547153e-03 
2.4512151e-01 2.2439468e-01 -3.8149208e-03 
2.4157886e-01 2.2081998e-01 -3.8247688e-03 
2.3945668e-01 2.1855016e-01 -2.3428320e-03 
2.4521729e-01 2.2434796e-01 -2.1568444e-03 
2.4167268e-01 2.2072990e-01 -1.6859834e-03 
2.3941293e-01 2.1861339e-01 -3.5866571e-03 
2.3880884e-01 2.1795774e-01 -3.0540968e-03 
2.3885682e-01 2.1787924e-01 -1.5830077e-03 
2.4235913e-01 2.2160719e-01 -3.8211874e-03 
2.3948391e-01 2.1849895e-01 -1.4305317e-03 
2.4016225e-01 2.1939163e-01 -3.8412614e-03 
2.4243793e-01 2.2154725e-01 -2.2070676e-03 
2.4361202e-01 2.2286990e-01 -3.7997172e-03 
2.4024673e-01 2.1928915e-01 -1.6662818e-03 
2.4368073e-01 2.2282526e-01 -2.4813917e-03 
2.3807783e-01 2.1715739e-01 -2.3278650e-03 
2.4521481e-01 2.2449079e-01 -3.8367324e-03 
2.4104339e-01 2.2028136e-01 -3.8461606e-03 
2.4116033e-01 2.2024925e-01 -2.1074095e-03 
2.4527965e-01 2.2446266e-01 -2.7550454e-03 
2.3795460e-01 2.1714288e-01 -3.6022873e-03 
2.3871832e-01 2.1793570e-01 -3.8579470e-03 
2.3742460e-01 2.1656093e-01 -3.0563930e-03 
2.3747329e-01 2.1648136e-01 -1.5634664e-03 
2.3801702e-01 2.1701647e-01 -1.4059044e-03 
2.3879407e-01 2.1782142e-01 -1.6463330e-03 
2.4378024e-01 2.2305416e-01 -3.9665210e-03 
2.3952937e-01 2.1875274e-01 -3.8402225e-03 
2.4381462e-01 2.2302257e-01 -3.2001303e-03 
2.3668891e-01 2.1575439e-01 -2.3127224e-03 
2.3958856e-01 2.1866998e-01 -2.1882239e-03 
2.4158661e-01 2.2083630e-01 -3.9229435e-03 
2.4162622e-01 2.2079602e-01 -2.9936067e-03 
2.4531326e-01 2.2461142e-01 -4.0813428e-03 
2.4534591e-01 2.2459970e-01 -3.5651459e-03 
2.3724613e-01 2.1645129e-01 -3.8748232e-03 
2.3820695e-01 2.1742024e-01 -3.8660327e-03 
2.3646754e-01 2.1564344e-01 -3.6181293e-03 
2.3603012e-01 2.1515383e-01 -3.0586929e-03 
2.3607960e-01 2.1507329e-01 -1.5437418e-03 
2.3731378e-01 2.1632588e-01 -1.6262090e-03 
2.3826264e-01 2.1732299e-01 -2.0849437e-03 
2.3652197e-01 2.1550569e-01 -1.3808624e-03 
2.3528966e-01 2.1434112e-01 -2.2974878e-03 
2.3895037e-01 2.1817715e-01 -3.9428002e-03 
2.3897298e-01 2.1812053e-01 -3.0207045e-03 
2.3574473e-01 2.1493745e-01 -3.8918147e-03 
2.3580487e-01 2.1480152e-01 -1.6058041e-03 
2.3462528e-01 2.1373639e-01 -3.0609383e-03 
2.3467553e-01 2.1365482e-01 -1.5237688e-03 
2.3658875e-01 2.1578643e-01 -3.8591994e-03 
2.3495075e-01 2.1411404e-01 -3.6341266e-03 
2.3663063e-01 2.1568339e-01 -2.1701877e-03 
2.3499790e-01 2.1396562e-01 -1.3553808e-03 
2.4539942e-01 2.2476506e-01 -4.8512593e-03 
2.3387994e-01 2.1291728e-01 -2.2821706e-03 
2.4289978e-01 2.2224341e-01 -4.8681730e-03 
2.3521343e-01 2.1440069e-01 -3.8863516e-03 
2.3525310e-01 2.1428411e-01 -2.0629598e-03 
2.3421313e-01 2.1339318e-01 -3.9089355e-03 
2.3326628e-01 2.1223468e-01 -1.5443130e-03 
2.3320974e-01 2.1230815e-01 -3.0632559e-03 
2.3426652e-01 2.1324748e-01 -1.5852393e-03 
2.3340322e-01 2.1255375e-01 -3.6502546e-03 
2.3344384e-01 2.1239538e-01 -1.3293554e-03 
2.4038891e-01 2.1971047e-01 -4.8850491e-03 
2.3598811e-01 2.1518897e-01 -3.9613005e-03 
2.3245947e-01 2.1148276e-01 -2.2667532e-03 
2.3579578e-01 2.1491608e-01 -3.0436111e-03 
2.3352952e-01 2.1270056e-01 -3.8779436e-03 
2.3265027e-01 2.1181746e-01 -3.9261221e-03 
2.3178361e-01 2.1086930e-01 -3.0654185e-03 
2.3183535e-01 2.1078569e-01 -1.4832087e-03 
2.3355666e-01 2.1258005e-01 -2.1530981e-03 
2.3269752e-01 2.1166268e-01 -1.5643627e-03 
2.3182388e-01 2.1096142e-01 -3.6665103e-03 
2.3786663e-01 2.1716572e-01 -4.9017761e-03 
2.3185864e-01 2.1079381e-01 -1.3029763e-03 
2.3102829e-01 2.1003731e-01 -2.2510700e-03 
2.3209763e-01 2.1125796e-01 -3.9062775e-03 
2.3212393e-01 2.1112497e-01 -2.0416121e-03 
2.3034641e-01 2.0941937e-01 -3.0676322e-03 
2.3039906e-01 2.0933492e-01 -1.4626790e-03 
2.3105507e-01 2.1020921e-01 -3.9433641e-03 
2.3109706e-01 2.1004619e-01 -1.5433938e-03 
2.3283678e-01 2.1201009e-01 -3.9793877e-03 
2.3021160e-01 2.0933594e-01 -3.6828301e-03 
2.3281254e-01 2.1190597e-01 -3.0481475e-03 
2.3024145e-01 2.0916015e-01 -1.2761332e-03 
2.3533282e-01 2.1460956e-01 -4.9184570e-03 
2.2958593e-01 2.0858103e-01 -2.2353581e-03 
2.2908229e-01 2.0800081e-01 -1.3931107e-03 
2.2889820e-01 2.0795858e-01 -3.0696753e-03 
2.3034342e-01 2.0948707e-01 -3.8962106e-03 
2.3035862e-01 2.0935220e-01 -2.1372011e-03 
2.2942635e-01 2.0856741e-01 -3.9606369e-03 
2.2946379e-01 2.0839690e-01 -1.5220540e-03 
2.2856545e-01 2.0767659e-01 -3.6992370e-03 
2.2813246e-01 2.0711352e-01 -2.2194316e-03 
2.2859088e-01 2.0749283e-01 -1.2486951e-03 
2.3278721e-01 2.1204154e-01 -4.9347365e-03 
2.2885098e-01 2.0798370e-01 -3.9255703e-03 
2.2756988e-01 2.0647191e-01 -1.3526950e-03 
2.2743866e-01 2.0648639e-01 -3.0715507e-03 
2.2886685e-01 2.0783757e-01 -2.0210557e-03 
2.2969507e-01 2.0884168e-01 -4.0007150e-03 
2.2776319e-01 2.0689081e-01 -3.9779902e-03 
2.2967215e-01 2.0874119e-01 -3.0915826e-03 
2.2779684e-01 2.0671375e-01 -1.5007929e-03 
2.2666760e-01 2.0563458e-01 -2.2031786e-03 
2.2688389e-01 2.0598167e-01 -3.7158180e-03 
2.2690597e-01 2.0579132e-01 -1.2208907e-03 
2.2596742e-01 2.0500275e-01 -3.0734821e-03 
2.2600164e-01 2.0488834e-01 -1.3274289e-03 
2.3023018e-01 2.0946249e-01 -4.9506277e-03 
2.2702152e-01 2.0613708e-01 -3.9136731e-03 
2.2702786e-01 2.0599133e-01 -2.1225722e-03 
2.2606412e-01 2.0517831e-01 -3.9950614e-03 
2.2519101e-01 2.0414431e-01 -2.1869594e-03 
2.2609478e-01 2.0499557e-01 -1.4790924e-03 
2.2516592e-01 2.0425031e-01 -3.7322736e-03 
2.2518548e-01 2.0405419e-01 -1.1925660e-03 
2.2448465e-01 2.0350766e-01 -3.0752476e-03 
2.2443815e-01 2.0331171e-01 -1.3229126e-03 
2.2546415e-01 2.0456859e-01 -3.9437595e-03 
2.2547306e-01 2.0441321e-01 -2.0014031e-03 
2.2370274e-01 2.0264259e-01 -2.1705898e-03 
2.2591580e-01 2.0503002e-01 -4.0130978e-03 
2.2432798e-01 2.0342875e-01 -4.0119980e-03 
2.2590545e-01 2.0493947e-01 -3.0656203e-03 
2.2435659e-01 2.0324136e-01 -1.4572836e-03 
2.2766055e-01 2.0687084e-01 -4.9659424e-03 
2.2341017e-01 2.0248117e-01 -3.7486958e-03 
2.2342809e-01 2.0228025e-01 -1.1637558e-03 
2.2299011e-01 2.0200104e-01 -3.0768295e-03 
2.2304659e-01 2.0191197e-01 -1.3562704e-03 
2.2355421e-01 2.0264144e-01 -3.9301249e-03 
2.2220254e-01 2.0112890e-01 -2.1541803e-03 
2.2355509e-01 2.0248859e-01 -2.1097115e-03 
2.2255345e-01 2.0164081e-01 -4.0287860e-03 
2.2258116e-01 2.0144974e-01 -1.4350788e-03 
2.2148311e-01 2.0048195e-01 -3.0787250e-03 
2.2152661e-01 2.0038128e-01 -1.3703046e-03 
2.2161528e-01 2.0067295e-01 -3.7649802e-03 
2.2507904e-01 2.0426750e-01 -4.9807751e-03 
2.2163287e-01 2.0046853e-01 -1.1342261e-03 
2.2192739e-01 2.0100363e-01 -3.9606593e-03 
2.2068973e-01 1.9960298e-01 -2.1377914e-03 
2.2193280e-01 2.0084275e-01 -1.9830198e-03 
2.2078753e-01 1.9974728e-01 -2.6820083e-03 
2.2259620e-01 2.0168342e-01 -4.0262565e-03 
2.2258580e-01 2.0159234e-01 -3.0674916e-03 
2.2073919e-01 1.9981340e-01 -4.0454059e-03 
2.2076687e-01 1.9961965e-01 -1.4126541e-03 
2.1996380e-01 1.9895086e-01 -3.0803680e-03 
2.2002177e-01 1.9886000e-01 -1.3125150e-03 
2.1977983e-01 1.9882450e-01 -3.7813978e-03 
2.1979807e-01 1.9861694e-01 -1.1040394e-03 
2.1916448e-01 1.9806458e-01 -2.1209626e-03 
2.2248596e-01 2.0165345e-01 -4.9951179e-03 
2.1993087e-01 1.9899002e-01 -3.9452151e-03 
2.1993016e-01 1.9883431e-01 -2.0986067e-03 
2.1858864e-01 1.9740953e-01 -1.2361655e-03 
2.1843202e-01 1.9740744e-01 -3.0815988e-03 
2.1888342e-01 1.9794433e-01 -4.0618056e-03 
2.1891215e-01 1.9774909e-01 -1.3898722e-03 
2.1762660e-01 1.9651365e-01 -2.1037250e-03 
2.1790236e-01 1.9693381e-01 -3.7975749e-03 
2.1792214e-01 1.9672471e-01 -1.0736679e-03 
2.1822934e-01 1.9727774e-01 -3.9758519e-03 
2.1919806e-01 1.9826151e-01 -4.0672589e-03 
2.1823496e-01 1.9711556e-01 -1.9658988e-03 
2.1915792e-01 1.9814920e-01 -3.2084931e-03 
2.1688719e-01 1.9585139e-01 -3.0828086e-03 
2.1694702e-01 1.9575867e-01 -1.2674059e-03 
2.1988177e-01 1.9902959e-01 -5.0087203e-03 
2.1698493e-01 1.9603269e-01 -4.0777489e-03 
2.1701606e-01 1.9583732e-01 -1.3674144e-03 
2.1607602e-01 1.9495073e-01 -2.0864899e-03 
2.1598117e-01 1.9499989e-01 -3.8132786e-03 
2.1600387e-01 1.9479054e-01 -1.0428631e-03 
2.1532981e-01 1.9428286e-01 -3.0836994e-03 
2.1539035e-01 1.9418976e-01 -1.2447895e-03 
2.1613972e-01 1.9517127e-01 -3.9581736e-03 
2.1614195e-01 1.9501776e-01 -2.0893989e-03 
2.1451232e-01 1.9337535e-01 -2.0694667e-03 
2.1504202e-01 1.9407719e-01 -4.0930747e-03 
2.1507666e-01 1.9388273e-01 -1.3442158e-03 
2.1726426e-01 1.9639252e-01 -5.0210520e-03 
2.1401492e-01 1.9302127e-01 -3.8287577e-03 
2.1375915e-01 1.9270195e-01 -3.0847483e-03 
2.1382008e-01 1.9260764e-01 -1.2216647e-03 
2.1404159e-01 1.9281264e-01 -1.0106670e-03 
2.1537508e-01 1.9441219e-01 -4.0917485e-03 
2.1435799e-01 1.9337916e-01 -3.9886357e-03 
2.1533732e-01 1.9430506e-01 -3.2594933e-03 
2.1436913e-01 1.9322126e-01 -1.9502661e-03 
2.1293527e-01 1.9178632e-01 -2.0520475e-03 
2.1305341e-01 1.9207577e-01 -4.1082958e-03 
2.1309215e-01 1.9188367e-01 -1.3208255e-03 
2.1217477e-01 1.9110693e-01 -3.0856682e-03 
2.1223705e-01 1.9101219e-01 -1.1985860e-03 
2.1200161e-01 1.9099571e-01 -3.8439909e-03 
2.1203379e-01 1.9078954e-01 -9.7851071e-04 
2.1463513e-01 1.9374503e-01 -5.0326665e-03 
2.1134450e-01 1.9018419e-01 -2.0347289e-03 
2.1216846e-01 1.9117327e-01 -3.9690491e-03 
2.1217777e-01 1.9102661e-01 -2.0825050e-03 
2.1057692e-01 1.8949933e-01 -3.0864633e-03 
2.1063960e-01 1.8940333e-01 -1.1751706e-03 
2.1101639e-01 1.9002679e-01 -4.1223587e-03 
2.1106167e-01 1.8983865e-01 -1.2976064e-03 
2.0974007e-01 1.8856864e-01 -2.0167376e-03 
2.0993985e-01 1.8892202e-01 -3.8585791e-03 
2.0997828e-01 1.8871973e-01 -9.4531593e-04 
2.1136935e-01 1.9038129e-01 -4.1178581e-03 
2.1133889e-01 1.9028446e-01 -3.3168248e-03 
2.1011050e-01 1.8910255e-01 -3.9724973e-03 
2.1199444e-01 1.9108720e-01 -5.0434810e-03 
2.0896524e-01 1.8787779e-01 -3.0863713e-03 
2.0902899e-01 1.8778175e-01 -1.1519952e-03 
2.1012555e-01 1.8896221e-01 -2.0799097e-03 
2.0893054e-01 1.8792892e-01 -4.1360427e-03 
2.0898251e-01 1.8774599e-01 -1.2738367e-03 
2.0812182e-01 1.8694037e-01 -1.9991258e-03 
2.0782709e-01 1.8679835e-01 -3.8728074e-03 
2.0787451e-01 1.8660158e-01 -9.1163139e-04 
2.0733984e-01 1.8624409e-01 -3.0863828e-03 
2.0740381e-01 1.8614654e-01 -1.1282108e-03 
2.0800272e-01 1.8698227e-01 -3.9757672e-03 
2.0722769e-01 1.8602836e-01 -1.8468964e-03 
2.0802492e-01 1.8684962e-01 -2.0783474e-03 
2.0648958e-01 1.8529834e-01 -1.9807382e-03 
2.0933959e-01 1.8841501e-01 -5.0526815e-03 
2.0807715e-01 1.8706714e-01 -4.1005723e-03 
2.0679285e-01 1.8578039e-01 -4.1477345e-03 
2.0808382e-01 1.8699948e-01 -3.1887435e-03 
2.0685397e-01 1.8560469e-01 -1.2499329e-03 
2.0569989e-01 1.8459551e-01 -3.0856766e-03 
2.0576482e-01 1.8449807e-01 -1.1041960e-03 
2.0566319e-01 1.8462391e-01 -3.8850673e-03 
2.0571925e-01 1.8443382e-01 -8.7844097e-04 
2.0484313e-01 1.8364304e-01 -1.9629581e-03 
2.0584279e-01 1.8481076e-01 -3.9782673e-03 
2.0587328e-01 1.8468741e-01 -2.0771993e-03 
2.0460244e-01 1.8357968e-01 -4.1594030e-03 
2.0404601e-01 1.8293361e-01 -3.0853460e-03 
2.0411146e-01 1.8283547e-01 -1.0799300e-03 
2.0467338e-01 1.8341260e-01 -1.2254844e-03 
2.0667270e-01 1.8573377e-01 -5.0616404e-03 
2.0344438e-01 1.8239561e-01 -3.8982509e-03 
2.0318189e-01 1.8197313e-01 -1.9446369e-03 
2.0516625e-01 1.8409640e-01 -3.5493036e-03 
2.0512398e-01 1.8411057e-01 -4.2480654e-03 
2.0351177e-01 1.8221454e-01 -8.4285310e-04 
2.0362870e-01 1.8258604e-01 -3.9793360e-03 
2.0366855e-01 1.8247266e-01 -2.0771257e-03 
2.0237671e-01 1.8125735e-01 -3.0849311e-03 
2.0244287e-01 1.8115851e-01 -1.0554885e-03 
2.0235623e-01 1.8132403e-01 -4.1699503e-03 
2.0243932e-01 1.8116744e-01 -1.2011395e-03 
2.0150508e-01 1.8028842e-01 -1.9260891e-03 
2.0399404e-01 1.8304127e-01 -5.0678672e-03 
2.0116824e-01 1.8011113e-01 -3.9105886e-03 
2.0124920e-01 1.7994082e-01 -8.0646761e-04 
2.0069335e-01 1.7956808e-01 -3.0825946e-03 
2.0075989e-01 1.7946802e-01 -1.0315682e-03 
2.0248190e-01 1.8139997e-01 -3.5494238e-03 
2.0244068e-01 1.8141511e-01 -4.2534890e-03 
2.0132254e-01 1.8027025e-01 -3.9794627e-03 
2.0135418e-01 1.8014874e-01 -2.0636076e-03 
2.0024756e-01 1.7904417e-01 -2.1434687e-03 
1.9981602e-01 1.7859261e-01 -1.9068822e-03 
2.0007141e-01 1.7903127e-01 -4.1798414e-03 
2.0017986e-01 1.7889726e-01 -1.1607027e-03 
1.9900982e-01 1.7787759e-01 -3.0645514e-03 
1.9907708e-01 1.7777921e-01 -1.0132532e-03 
1.9887450e-01 1.7781053e-01 -3.9197439e-03 
2.0130345e-01 1.8033877e-01 -5.0727236e-03 
1.9899327e-01 1.7767607e-01 -7.7186979e-04 
1.9813998e-01 1.7691101e-01 -1.8889174e-03 
1.9897671e-01 1.7791678e-01 -3.9852615e-03 
1.9907269e-01 1.7785463e-01 -1.9942280e-03 
1.9979297e-01 1.7870140e-01 -3.5535188e-03 
1.9975285e-01 1.7871733e-01 -4.2591146e-03 
1.9801079e-01 1.7679936e-01 -2.1194792e-03 
1.9733967e-01 1.7620221e-01 -3.0461764e-03 
1.9779691e-01 1.7675023e-01 -4.1893004e-03 
1.9740619e-01 1.7610300e-01 -9.9481968e-04 
1.9794233e-01 1.7665091e-01 -1.1128362e-03 
1.9647683e-01 1.7524244e-01 -1.8698869e-03 
1.9662282e-01 1.7555362e-01 -3.9276397e-03 
1.9677490e-01 1.7545088e-01 -7.3829223e-04 
1.9861358e-01 1.7763901e-01 -5.0760219e-03 
1.9672242e-01 1.7565751e-01 -3.9951238e-03 
1.9685449e-01 1.7562535e-01 -1.9223351e-03 
1.9568101e-01 1.7453860e-01 -3.0281725e-03 
1.9574799e-01 1.7444082e-01 -9.7677868e-04 
1.9699676e-01 1.7594142e-01 -4.1087973e-03 
1.9705828e-01 1.7592804e-01 -3.1577006e-03 
1.9556363e-01 1.7451289e-01 -4.1975533e-03 
1.9574094e-01 1.7444146e-01 -1.0660940e-03 
1.9524769e-01 1.7402875e-01 -2.0874876e-03 
1.9482589e-01 1.7358798e-01 -1.8516808e-03 
1.9459280e-01 1.7326310e-01 -7.0475176e-04 
1.9441034e-01 1.7333770e-01 -3.9341371e-03 
1.9403560e-01 1.7288902e-01 -3.0092434e-03 
1.9410250e-01 1.7279249e-01 -9.5923466e-04 
1.9467144e-01 1.7343378e-01 -1.8523635e-03 
1.9450748e-01 1.7343955e-01 -4.0051844e-03 
1.9593006e-01 1.7494921e-01 -5.0787758e-03 
1.9318709e-01 1.7194661e-01 -1.8341306e-03 
1.9357511e-01 1.7226946e-01 -1.0206139e-03 
1.9336891e-01 1.7231631e-01 -4.2047459e-03 
1.9439138e-01 1.7334411e-01 -4.2685345e-03 
1.9420722e-01 1.7307611e-01 -3.2106494e-03 
1.9240212e-01 1.7125300e-01 -2.9903552e-03 
1.9243617e-01 1.7112522e-01 -9.5875404e-04 
1.9244561e-01 1.7111091e-01 -6.7008054e-04 
1.9223717e-01 1.7116302e-01 -3.9412268e-03 
1.9178699e-01 1.7056765e-01 -2.1142978e-03 
1.9156002e-01 1.7031698e-01 -1.8154567e-03 
1.9252236e-01 1.7127752e-01 -1.7851869e-03 
1.9208157e-01 1.7100708e-01 -3.9584660e-03 
1.9144259e-01 1.7013361e-01 -9.7779790e-04 
1.9121304e-01 1.7015874e-01 -4.2104777e-03 
1.9077963e-01 1.6962796e-01 -2.9705109e-03 
1.9325523e-01 1.7227140e-01 -5.0807646e-03 
1.9084598e-01 1.6953254e-01 -9.2355191e-04 
1.9060329e-01 1.6937546e-01 -2.0073992e-03 
1.9176154e-01 1.7062798e-01 -3.1997971e-03 
1.8994473e-01 1.6870092e-01 -1.7976278e-03 
1.9033046e-01 1.6899522e-01 -6.3993706e-04 
1.9010121e-01 1.6902605e-01 -3.9446163e-03 
1.9172001e-01 1.7067118e-01 -4.2702816e-03 
1.9040778e-01 1.6915867e-01 -1.7186463e-03 
1.9019374e-01 1.6912347e-01 -4.0212441e-03 
1.8916921e-01 1.6801679e-01 -2.9516655e-03 
1.8923576e-01 1.6792198e-01 -9.0605312e-04 
1.8934430e-01 1.6803354e-01 -9.3440223e-04 
1.8909414e-01 1.6803995e-01 -4.2143157e-03 
1.8860403e-01 1.6735516e-01 -1.7207453e-03 
1.8834040e-01 1.6709693e-01 -1.7798574e-03 
1.9058432e-01 1.6959932e-01 -5.0801253e-03 
1.8824935e-01 1.6691384e-01 -6.0715538e-04 
1.8800108e-01 1.6692743e-01 -3.9482941e-03 
1.8932329e-01 1.6816528e-01 -2.8898341e-03 
1.8912876e-01 1.6805862e-01 -4.0106969e-03 
1.8756954e-01 1.6641779e-01 -2.9319755e-03 
1.8832590e-01 1.6707265e-01 -1.6545476e-03 
1.8747894e-01 1.6615856e-01 -7.9328171e-04 
1.8809170e-01 1.6702324e-01 -4.0292786e-03 
1.8674655e-01 1.6550425e-01 -1.7628522e-03 
1.8727759e-01 1.6596581e-01 -8.9129276e-04 
1.8701057e-01 1.6595860e-01 -4.2171329e-03 
1.8604791e-01 1.6473657e-01 -8.7215705e-04 
1.8595356e-01 1.6479369e-01 -2.7992269e-03 
1.8619986e-01 1.6486527e-01 -5.7563075e-04 
1.8593477e-01 1.6486448e-01 -3.9507118e-03 
1.8791895e-01 1.6693370e-01 -5.0769360e-03 
1.8554322e-01 1.6434309e-01 -2.2800488e-03 
1.8627572e-01 1.6502170e-01 -1.5924628e-03 
1.8602371e-01 1.6495812e-01 -4.0366212e-03 
1.8516447e-01 1.6392444e-01 -1.7463384e-03 
1.8524210e-01 1.6393313e-01 -8.5155928e-04 
1.8639413e-01 1.6534668e-01 -4.2677945e-03 
1.8642920e-01 1.6532695e-01 -3.5650427e-03 
1.8469015e-01 1.6337337e-01 -7.5760903e-04 
1.8496005e-01 1.6391036e-01 -4.2181420e-03 
1.8455029e-01 1.6341206e-01 -3.0383025e-03 
1.8579356e-01 1.6460173e-01 -2.3960478e-03 
1.8548451e-01 1.6441199e-01 -3.9371327e-03 
1.8418022e-01 1.6284922e-01 -5.4584217e-04 
1.8390457e-01 1.6283748e-01 -3.9480682e-03 
1.8359399e-01 1.6235648e-01 -1.7292229e-03 
1.8425603e-01 1.6300164e-01 -1.5322207e-03 
1.8399134e-01 1.6292997e-01 -4.0427865e-03 
1.8525924e-01 1.6427639e-01 -5.0707366e-03 
1.8295212e-01 1.6163661e-01 -7.0296373e-04 
1.8282081e-01 1.6168772e-01 -3.0414460e-03 
1.8323755e-01 1.6192998e-01 -8.1209821e-04 
1.8294488e-01 1.6190065e-01 -4.2189602e-03 
1.8203443e-01 1.6080011e-01 -1.7118655e-03 
1.8374138e-01 1.6269912e-01 -4.2630280e-03 
1.8377510e-01 1.6267885e-01 -3.5622516e-03 
1.8219177e-01 1.6086356e-01 -5.1432668e-04 
1.8190660e-01 1.6084607e-01 -3.9475816e-03 
1.8226670e-01 1.6101365e-01 -1.4734340e-03 
1.8114942e-01 1.6001758e-01 -2.9930777e-03 
1.8178469e-01 1.6073307e-01 -4.0868851e-03 
1.8217713e-01 1.6098912e-01 -2.3163834e-03 
1.8097453e-01 1.5966330e-01 -6.7843235e-04 
1.8126227e-01 1.5995871e-01 -7.7351421e-04 
1.8096232e-01 1.5992360e-01 -4.2169341e-03 
1.8048446e-01 1.5925518e-01 -1.6949573e-03 
1.8260843e-01 1.6163021e-01 -5.0618248e-03 
1.8007442e-01 1.5888187e-01 -2.1619976e-03 
1.8023145e-01 1.5891008e-01 -4.8494429e-04 
1.8100400e-01 1.5994266e-01 -3.9190780e-03 
1.7976122e-01 1.5861575e-01 -2.7423659e-03 
1.7994082e-01 1.5888578e-01 -3.9452002e-03 
1.7980480e-01 1.5850879e-01 -8.0720434e-04 
1.8030606e-01 1.5905659e-01 -1.4161267e-03 
1.8109637e-01 1.6006073e-01 -4.2556892e-03 
1.8112931e-01 1.6003996e-01 -3.5564969e-03 
1.8002412e-01 1.5897535e-01 -4.0513747e-03 
1.7917080e-01 1.5786098e-01 -5.8305787e-04 
1.7894566e-01 1.5772194e-01 -1.6786280e-03 
1.7931542e-01 1.5801820e-01 -7.3440315e-04 
1.7901078e-01 1.5797916e-01 -4.2143413e-03 
1.7850275e-01 1.5721366e-01 -8.1088446e-04 
1.7820418e-01 1.5707040e-01 -2.8072619e-03 
1.7829977e-01 1.5698421e-01 -4.5557934e-04 
1.7800538e-01 1.5695913e-01 -3.9418787e-03 
1.7996395e-01 1.5899353e-01 -5.0520119e-03 
1.7837331e-01 1.5712869e-01 -1.3604971e-03 
1.7741695e-01 1.5619956e-01 -1.6617319e-03 
1.7788641e-01 1.5685016e-01 -4.0902733e-03 
1.7720187e-01 1.5590416e-01 -6.1332190e-04 
1.7827435e-01 1.5710551e-01 -2.3599258e-03 
1.7739633e-01 1.5610608e-01 -6.9791632e-04 
1.7716162e-01 1.5595722e-01 -1.8210287e-03 
1.7677973e-01 1.5566845e-01 -3.0065861e-03 
1.7845748e-01 1.5743212e-01 -4.2473669e-03 
1.7708975e-01 1.5606646e-01 -4.2107184e-03 
1.7848943e-01 1.5741099e-01 -3.5502594e-03 
1.7639498e-01 1.5508899e-01 -4.2820707e-04 
1.7713353e-01 1.5608524e-01 -3.8827576e-03 