# vtk DataFile Version 4.0
vtk output
ASCII
DATASET UNSTRUCTURED_GRID
POINTS 4496 float
-4.3633327e-01 9.6409470e-01 4.4200001e+01 
-4.3633258e-01 9.6409065e-01 4.4074627e+01 
-3.2152572e-01 9.1279918e-01 4.4200001e+01 
-3.8534868e-01 8.4052670e-01 4.4200001e+01 
-3.9589554e-01 8.5545403e-01 4.4010014e+01 
-3.2616228e-01 9.1667932e-01 4.4011734e+01 
-4.3633190e-01 9.6408653e-01 4.3948376e+01 
-2.1293370e-01 8.4677851e-01 4.4200001e+01 
-2.9042658e-01 7.3813015e-01 4.4200001e+01 
-2.1010752e-01 8.4669363e-01 4.4073502e+01 
-2.8908840e-01 7.3604190e-01 4.4072292e+01 
-3.9589015e-01 8.5505831e-01 4.3883316e+01 
-3.2487559e-01 9.1697580e-01 4.3885036e+01 
-2.0722924e-01 8.4660655e-01 4.3944645e+01 
-1.1981077e-01 7.7773046e-01 4.4200001e+01 
-2.8772619e-01 7.3391593e-01 4.3942276e+01 
-4.3633121e-01 9.6408242e-01 4.3821228e+01 
-1.9739023e-01 6.6468561e-01 4.4200001e+01 
-2.9444304e-01 7.8727525e-01 4.3879974e+01 
-8.7554991e-02 7.5255024e-01 4.4042213e+01 
-1.6445170e-01 6.4084798e-01 4.4041008e+01 
-3.2357255e-01 9.1726828e-01 4.3757431e+01 
-3.9587301e-01 8.5463828e-01 4.3755711e+01 
-2.0429766e-01 8.4651643e-01 4.3813354e+01 
-2.8633916e-01 7.3175091e-01 4.3809875e+01 
-2.6899619e-02 6.8901783e-01 4.4200001e+01 
-1.0567340e-01 7.7152997e-01 4.3875790e+01 
-4.3633053e-01 9.6407831e-01 4.3693161e+01 
-8.7133333e-02 5.9509218e-01 4.4200001e+01 
-1.8777622e-01 6.5475601e-01 4.3873402e+01 
-2.0131156e-01 8.4642249e-01 4.3679543e+01 
-3.2225290e-01 9.1755641e-01 4.3628902e+01 
-3.9584404e-01 8.5419410e-01 4.3627178e+01 
-1.0114321e-03 6.6670936e-01 4.3939713e+01 
-2.8492665e-01 7.2954547e-01 4.3675007e+01 
-1.0131179e-01 7.7015632e-01 4.3743176e+01 
-6.0682178e-02 5.7631296e-01 4.3938457e+01 
3.9444737e-02 6.2338209e-01 4.4053139e+01 
-1.8470748e-01 6.5131217e-01 4.3739727e+01 
-7.0938184e-03 5.4737431e-01 4.4052326e+01 
-4.3632981e-01 9.6407413e-01 4.3564159e+01 
7.6947339e-02 5.8804804e-01 4.4200001e+01 
-1.2721874e-02 6.8194175e-01 4.3817982e+01 
-7.7214435e-02 5.8474159e-01 4.3819649e+01 
4.0195532e-02 5.2425718e-01 4.4200001e+01 
-1.9826968e-01 8.4632379e-01 4.3543118e+01 
-9.6842363e-02 7.6872379e-01 4.3607994e+01 
-3.2091641e-01 9.1783977e-01 4.3499420e+01 
-3.9580306e-01 8.5372573e-01 4.3497700e+01 
-2.8348783e-01 7.2729832e-01 4.3537586e+01 
-1.8155001e-01 6.4778340e-01 4.3603539e+01 
1.5678726e-01 5.2239102e-01 4.4060219e+01 
1.0298219e-02 6.6009766e-01 4.3674484e+01 
1.3250886e-01 4.7546524e-01 4.4058990e+01 
-4.3632913e-01 9.6407002e-01 4.3434200e+01 
-5.0139543e-02 5.6696451e-01 4.3671154e+01 
1.3504514e-01 5.4209155e-01 4.3856747e+01 
1.0361936e-01 4.8715758e-01 4.3855240e+01 
2.0846681e-01 4.8028421e-01 4.4200001e+01 
1.9279444e-01 4.4799727e-01 4.4200001e+01 
-9.2261828e-02 7.6722860e-01 4.3470158e+01 
-1.4701239e-03 6.7547697e-01 4.3552124e+01 
-1.9517080e-01 8.4621930e-01 4.3403992e+01 
-3.1956279e-01 9.1811794e-01 4.3368977e+01 
-3.9574999e-01 8.5323322e-01 4.3367252e+01 
-1.7830023e-01 6.4416617e-01 4.3464752e+01 
-6.7131944e-02 5.7555372e-01 4.3547829e+01 
-2.8202194e-01 7.2500783e-01 4.3397518e+01 
-4.3632844e-01 9.6406585e-01 4.3303261e+01 
1.5138821e-01 5.3037512e-01 4.3609200e+01 
1.2119007e-01 4.7490793e-01 4.3606068e+01 
-8.7566733e-02 7.6566672e-01 4.3329563e+01 
-1.7495437e-01 6.4045686e-01 4.3323273e+01 
-3.1819177e-01 9.1839045e-01 4.3237537e+01 
-3.9568463e-01 8.5271639e-01 4.3235813e+01 
2.2269404e-02 6.5294570e-01 4.3398811e+01 
-1.9201367e-01 8.4610778e-01 4.3262066e+01 
-3.8899176e-02 5.5709696e-01 4.3393635e+01 
-2.8052819e-01 7.2267252e-01 4.3254715e+01 
3.7877345e-01 3.8273901e-01 4.4200001e+01 
-4.3632776e-01 9.6406174e-01 4.3171322e+01 
3.9241230e-01 3.7329337e-01 4.3965439e+01 
1.0283732e-02 6.6872352e-01 4.3271511e+01 
-5.6385640e-02 5.6585240e-01 4.3265472e+01 
-8.2753494e-02 7.6403379e-01 4.3186119e+01 
-4.0345609e-01 8.6371827e-01 4.3104889e+01 
-3.1680310e-01 9.1865683e-01 4.3105087e+01 
-1.7150842e-01 6.3665158e-01 4.3179005e+01 
-1.8879703e-01 8.4598809e-01 4.3117241e+01 
-2.7900568e-01 7.2029078e-01 4.3109074e+01 
4.0610775e-01 3.6380205e-01 4.3729839e+01 
1.6776134e-01 5.1882964e-01 4.3331150e+01 
-4.3632707e-01 9.6405768e-01 4.3038357e+01 
1.4031014e-01 4.6124566e-01 4.3307755e+01 
3.4952711e-02 6.4519531e-01 4.3111935e+01 
-7.7818394e-02 7.6232505e-01 4.3039719e+01 
-3.1539652e-01 9.1891652e-01 4.2971603e+01 
-3.9551663e-01 8.5160977e-01 4.2969879e+01 
-2.6899155e-02 5.4666573e-01 4.3105160e+01 
-1.6795819e-01 6.3274628e-01 4.3031849e+01 
-1.8551964e-01 8.4585863e-01 4.2969406e+01 
4.1985780e-01 3.5425979e-01 4.3493168e+01 
-2.7745360e-01 7.1786088e-01 4.2960495e+01 
-4.3632638e-01 9.6405357e-01 4.2904346e+01 
2.2723136e-02 6.6139150e-01 4.2979332e+01 
-4.4916678e-02 5.5559248e-01 4.2971806e+01 
-3.1397179e-01 9.1916907e-01 4.2837063e+01 
-3.9541367e-01 8.5101974e-01 4.2835335e+01 
-7.2757579e-02 7.6053542e-01 4.2890255e+01 
-1.6429928e-01 6.2873662e-01 4.2881699e+01 
1.8463810e-01 5.0694346e-01 4.3035332e+01 
-1.8218029e-01 8.4571803e-01 4.2818455e+01 
1.5503895e-01 4.5003417e-01 4.3027725e+01 
-2.7587104e-01 7.1538109e-01 4.2808868e+01 
4.3366045e-01 3.4466109e-01 4.3255390e+01 
-4.3632573e-01 9.6404958e-01 4.2769268e+01 
-3.8429454e-01 8.3484912e-01 4.2710606e+01 
-3.1252861e-01 9.1941386e-01 4.2701439e+01 
4.8404284e-02 6.3678014e-01 4.2813030e+01 
-1.4070326e-02 5.3562075e-01 4.2804932e+01 
-6.7567028e-02 7.5865942e-01 4.2737610e+01 
-1.6052702e-01 6.2461799e-01 4.2728443e+01 
-1.7877772e-01 8.4556442e-01 4.2664265e+01 
-4.3632504e-01 9.6404558e-01 4.2633099e+01 
-2.7425703e-01 7.1284944e-01 4.2654083e+01 
4.4751364e-01 3.3500037e-01 4.3016472e+01 
3.5901129e-02 6.5341437e-01 4.2674721e+01 
-3.7959340e-01 8.2794034e-01 4.2568317e+01 
-3.1106678e-01 9.1965032e-01 4.2564713e+01 
-3.2659348e-02 5.4472327e-01 4.2665997e+01 
2.0396979e-01 4.9291667e-01 4.2740131e+01 
-6.2242586e-02 7.5669110e-01 4.2581669e+01 
1.7765003e-01 4.3475360e-01 4.2732578e+01 
-1.5663649e-01 6.2038553e-01 4.2571964e+01 
-4.3632439e-01 9.6404165e-01 4.2495808e+01 
-1.7531081e-01 8.4539592e-01 4.2506718e+01 
-2.7261066e-01 7.1026409e-01 4.2496017e+01 
-3.0958602e-01 9.1987789e-01 4.2426853e+01 
-3.7859210e-01 8.2613736e-01 4.2421188e+01 
4.6141517e-01 3.2527190e-01 4.2776375e+01 
6.2686495e-02 6.2762415e-01 4.2501175e+01 
-3.3570320e-04 5.2390522e-01 4.2492062e+01 
-5.6779940e-02 7.5462401e-01 4.2422298e+01 
-4.3632373e-01 9.6403772e-01 4.2357380e+01 
-1.5262254e-01 6.1603409e-01 4.2412144e+01 
-1.7177837e-01 8.4521037e-01 4.2345684e+01 
-2.7093092e-01 7.0762289e-01 4.2334549e+01 
-3.0808610e-01 9.2009580e-01 4.2287842e+01 
-3.8275370e-01 8.3137155e-01 4.2275047e+01 
4.9876589e-02 6.4471585e-01 4.2356720e+01 
-1.9539909e-02 5.3318781e-01 4.2347118e+01 
-4.3632311e-01 9.6403396e-01 4.2217781e+01 
2.1959943e-01 4.8236796e-01 4.2385345e+01 
-5.1174615e-02 7.5245124e-01 4.2259373e+01 
1.9034323e-01 4.2346162e-01 4.2378918e+01 
-1.4847966e-01 6.1155808e-01 4.2248856e+01 
4.7536272e-01 3.1546980e-01 4.2535065e+01 
-1.6817927e-01 8.4500539e-01 4.2181026e+01 
-2.6921678e-01 7.0492369e-01 4.2169544e+01 
-3.0656675e-01 9.2030340e-01 4.2147648e+01 
-3.9470181e-01 8.4769493e-01 4.2145920e+01 
7.7868804e-02 6.1763972e-01 4.2175373e+01 
-4.3632248e-01 9.6403021e-01 4.2076988e+01 
1.4390758e-02 5.1145434e-01 4.2165581e+01 
-4.5421973e-02 7.5016522e-01 4.2092751e+01 
-1.4420210e-01 6.0695171e-01 4.2081959e+01 
-3.0502778e-01 9.2049998e-01 4.2006248e+01 
-4.0175444e-01 8.5747409e-01 4.2004128e+01 
-1.6451253e-01 8.4477836e-01 4.2012604e+01 
4.8935395e-01 3.0558801e-01 4.2292507e+01 
-2.6746723e-01 7.0216429e-01 4.2000870e+01 
6.4714879e-02 6.3520777e-01 4.2024277e+01 
-4.3632188e-01 9.6402657e-01 4.1934975e+01 
-5.4755262e-03 5.2092212e-01 4.2014156e+01 
-2.3078828e-01 8.1064087e-01 4.1931458e+01 
2.3550548e-01 4.7116494e-01 4.2073269e+01 
2.0610523e-01 4.1123796e-01 4.2066772e+01 
-3.9517213e-02 7.4775779e-01 4.1922287e+01 
-1.3978374e-01 6.0220873e-01 4.1911320e+01 
-3.0346894e-01 9.2068475e-01 4.1863613e+01 
-3.9432141e-01 8.4618556e-01 4.1861881e+01 
-1.6077711e-01 8.4452641e-01 4.1840263e+01 
-2.6568118e-01 6.9934219e-01 4.1828377e+01 
-4.3632129e-01 9.6402299e-01 4.1791718e+01 
5.0338638e-01 2.9562023e-01 4.2048656e+01 
9.4028555e-02 6.0672593e-01 4.1834507e+01 
3.0205652e-02 4.9819478e-01 4.1824417e+01 
-3.8116732e-01 8.2744831e-01 4.1725647e+01 
-3.0189002e-01 9.2085695e-01 4.1719719e+01 
-3.3455357e-02 7.4522001e-01 4.1747829e+01 
-1.3521814e-01 5.9732240e-01 4.1736786e+01 
-4.3632072e-01 9.6401960e-01 4.1647179e+01 
-1.5697217e-01 8.4424627e-01 4.1663853e+01 
-2.6385748e-01 6.9645494e-01 4.1651920e+01 
8.0488607e-02 6.2478805e-01 4.1676235e+01 
2.6870471e-01 4.4547972e-01 4.1752304e+01 
9.6269641e-03 5.0785345e-01 4.1665993e+01 
2.4764967e-01 3.8646612e-01 4.1743168e+01 
-3.0029076e-01 9.2101562e-01 4.1574532e+01 
-3.9388368e-01 8.4456980e-01 4.1572796e+01 
5.1745731e-01 2.8556010e-01 4.1803486e+01 
-2.7231261e-02 7.4254233e-01 4.1569210e+01 
-1.3049847e-01 5.9228569e-01 4.1558201e+01 
-4.3632016e-01 9.6401632e-01 4.1501339e+01 
-1.5309690e-01 8.4393430e-01 4.1483204e+01 
-2.6199502e-01 6.9349992e-01 4.1471333e+01 
-2.9867104e-01 9.2115986e-01 4.1428024e+01 
-3.9364263e-01 8.4372103e-01 4.1426289e+01 
1.1125199e-01 5.9476525e-01 4.1477348e+01 
4.7217656e-02 4.8404291e-01 4.1467384e+01 
-4.3631962e-01 9.6401310e-01 4.1354160e+01 
-2.0839609e-02 7.3971421e-01 4.1386261e+01 
-1.2561750e-01 5.8709091e-01 4.1375404e+01 
5.3156406e-01 2.7540097e-01 4.1556946e+01 
-1.4915068e-01 8.4358656e-01 4.1298138e+01 
-2.9703063e-01 9.2128879e-01 4.1280167e+01 
-3.9338648e-01 8.4284443e-01 4.1278431e+01 
-2.6009262e-01 6.9047421e-01 4.1286449e+01 
2.9365057e-01 4.2687622e-01 4.1391586e+01 
9.7278498e-02 6.1333776e-01 4.1311302e+01 
2.7470219e-01 3.6807936e-01 4.1382729e+01 
2.5872495e-02 4.9389899e-01 4.1301384e+01 
-4.3631911e-01 9.6401012e-01 4.1205620e+01 
-1.4274905e-02 7.3672432e-01 4.1198803e+01 
-1.2056758e-01 5.8173001e-01 4.1188221e+01 
-2.9536936e-01 9.2140132e-01 4.1130928e+01 
[...]
POINT_DATA 4496
FIELD FieldData 5
DISPLACEMENT 3 4496  float
2.2613409e-01 2.0700830e-01 -2.1032868e-03 
2.2490524e-01 2.0576595e-01 -2.0910723e-03 
2.2617747e-01 2.0710926e-01 -2.7217721e-03 
2.2624955e-01 2.0705812e-01 -1.3801083e-03 
2.2437365e-01 2.0516573e-01 -1.4059733e-03 
2.2432870e-01 2.0523949e-01 -2.6964040e-03 
2.2366783e-01 2.0451495e-01 -2.0787679e-03 
2.2623523e-01 2.0720564e-01 -3.1335144e-03 
2.2634268e-01 2.0714457e-01 -1.2975830e-03 
2.2499527e-01 2.0595454e-01 -3.1481097e-03 
2.2509284e-01 2.0588030e-01 -1.2776292e-03 
2.2313222e-01 2.0391032e-01 -1.3897992e-03 
2.2308657e-01 2.0398514e-01 -2.6996478e-03 
2.2373223e-01 2.0468010e-01 -3.1629521e-03 
2.2629663e-01 2.0728892e-01 -3.3635322e-03 
2.2382043e-01 2.0459324e-01 -1.2573360e-03 
2.2242165e-01 2.0325510e-01 -2.0663659e-03 
2.2640830e-01 2.0722800e-01 -1.4831965e-03 
2.2315921e-01 2.0396748e-01 -1.7136647e-03 
2.2477251e-01 2.0575424e-01 -3.4153645e-03 
2.2487101e-01 2.0568186e-01 -1.5548996e-03 
2.2183561e-01 2.0272188e-01 -2.7028655e-03 
2.2188196e-01 2.0264602e-01 -1.3734404e-03 
2.2244535e-01 2.0338163e-01 -3.1780363e-03 
2.2252469e-01 2.0328258e-01 -1.2366727e-03 
2.2637683e-01 2.0737304e-01 -3.3967805e-03 
2.2312406e-01 2.0408852e-01 -3.4093184e-03 
2.2116663e-01 2.0198625e-01 -2.0538457e-03 
2.2646943e-01 2.0732604e-01 -1.8758575e-03 
2.2321600e-01 2.0400029e-01 -1.4475104e-03 
2.2113384e-01 2.0205826e-01 -3.1933442e-03 
2.2057566e-01 2.0144951e-01 -2.7061158e-03 
2.2062272e-01 2.0137267e-01 -1.3569022e-03 
2.2384551e-01 2.0481685e-01 -3.4046136e-03 
2.2120482e-01 2.0194758e-01 -1.2156591e-03 
2.2182536e-01 2.0277819e-01 -3.4255846e-03 
2.2392236e-01 2.0475776e-01 -1.9240285e-03 
2.2499672e-01 2.0597778e-01 -3.3835818e-03 
2.2190882e-01 2.0267849e-01 -1.4305853e-03 
2.2506359e-01 2.0593360e-01 -2.1742992e-03 
2.1990247e-01 2.0070833e-01 -2.0412484e-03 
2.2646825e-01 2.0746723e-01 -3.4159438e-03 
2.2263834e-01 2.0359966e-01 -3.4286978e-03 
2.2275050e-01 2.0356579e-01 -1.8337667e-03 
2.2653098e-01 2.0743886e-01 -2.4237086e-03 
2.1979684e-01 2.0070918e-01 -3.2088633e-03 
2.2050162e-01 2.0144255e-01 -3.4420493e-03 
2.1930654e-01 2.0016795e-01 -2.7093510e-03 
2.1935430e-01 2.0009005e-01 -1.3401099e-03 
2.1986006e-01 2.0058742e-01 -1.1942604e-03 
2.2057718e-01 2.0133194e-01 -1.4134542e-03 
2.2515689e-01 2.0615366e-01 -3.5356137e-03 
2.2125152e-01 2.0219839e-01 -3.4243262e-03 
2.2519082e-01 2.0612296e-01 -2.8325948e-03 
2.1862908e-01 1.9942100e-01 -2.0284981e-03 
2.2131051e-01 2.0211829e-01 -1.9090062e-03 
2.2314453e-01 2.0411737e-01 -3.4976013e-03 
2.2318366e-01 2.0407823e-01 -2.6451247e-03 
2.2656488e-01 2.0758557e-01 -3.6393155e-03 
2.2659649e-01 2.0757371e-01 -3.1657883e-03 
2.1915199e-01 2.0008078e-01 -3.4587129e-03 
2.2003821e-01 2.0097506e-01 -3.4491834e-03 
2.1843348e-01 1.9933353e-01 -3.2246001e-03 
2.1802805e-01 1.9887695e-01 -2.7126004e-03 
2.1807656e-01 1.9879808e-01 -1.3231598e-03 
2.1922022e-01 1.9995986e-01 -1.3961842e-03 
2.2009432e-01 2.0088133e-01 -1.8154650e-03 
2.1848950e-01 1.9920127e-01 -1.1725038e-03 
2.1734624e-01 1.9812426e-01 -2.0156729e-03 
2.2072825e-01 2.0167837e-01 -3.5178720e-03 
2.2075179e-01 2.0162432e-01 -2.6720401e-03 
2.1777555e-01 1.9869202e-01 -3.4755035e-03 
2.1783702e-01 1.9856137e-01 -1.3786781e-03 
2.1674006e-01 1.9757645e-01 -2.7158060e-03 
2.1678931e-01 1.9749656e-01 -1.3059919e-03 
2.1855588e-01 1.9947729e-01 -3.4440719e-03 
2.1704286e-01 1.9793041e-01 -3.2405029e-03 
2.1859916e-01 1.9937855e-01 -1.8948070e-03 
2.1709231e-01 1.9778824e-01 -1.1503653e-03 
2.2664988e-01 2.0773667e-01 -4.3443800e-03 
2.1605377e-01 1.9681783e-01 -2.0027792e-03 
2.2435868e-01 2.0542368e-01 -4.3618563e-03 
2.1729405e-01 1.9820511e-01 -3.4702055e-03 
2.1733563e-01 1.9809358e-01 -1.7976887e-03 
2.1637145e-01 1.9727533e-01 -3.4924394e-03 
2.1549666e-01 1.9619308e-01 -1.3260582e-03 
2.1544227e-01 1.9626606e-01 -2.7190871e-03 
2.1642682e-01 1.9713563e-01 -1.3610472e-03 
2.1562408e-01 1.9649896e-01 -3.2565522e-03 
2.1566764e-01 1.9634755e-01 -1.1277506e-03 
2.2205719e-01 2.0310031e-01 -4.3793074e-03 
2.1801300e-01 1.9893743e-01 -3.5371666e-03 
2.1475147e-01 1.9550160e-01 -1.9898009e-03 
2.1783963e-01 1.9868509e-01 -2.6955283e-03 
2.1575154e-01 1.9664653e-01 -3.4636986e-03 
2.1493869e-01 1.9582979e-01 -3.5094593e-03 
2.1413477e-01 1.9494592e-01 -2.7222321e-03 
2.1418543e-01 1.9486400e-01 -1.2711080e-03 
2.1578142e-01 1.9653170e-01 -1.8815629e-03 
2.1498851e-01 1.9568168e-01 -1.3431538e-03 
2.1417613e-01 1.9503808e-01 -3.2727425e-03 
2.1974522e-01 2.0076609e-01 -4.3966351e-03 
2.1421441e-01 1.9487809e-01 -1.1048348e-03 
2.1343935e-01 1.9417532e-01 -1.9765878e-03 
2.1443783e-01 1.9532214e-01 -3.4909658e-03 
2.1446727e-01 1.9519550e-01 -1.7805857e-03 
2.1281710e-01 1.9361562e-01 -2.7254375e-03 
2.1286863e-01 1.9353284e-01 -1.2534497e-03 
2.1347629e-01 1.9435440e-01 -3.5265582e-03 
2.1352139e-01 1.9419865e-01 -1.3251982e-03 
2.1512444e-01 1.9602153e-01 -3.5562390e-03 
2.1269797e-01 1.9354679e-01 -3.2890199e-03 
2.1510510e-01 1.9592392e-01 -2.7020359e-03 
2.1273185e-01 1.9337921e-01 -1.0815200e-03 
2.1742266e-01 1.9842136e-01 -4.4139372e-03 
2.1211697e-01 1.9283912e-01 -1.9633539e-03 
2.1166228e-01 1.9230933e-01 -1.1906114e-03 
2.1148933e-01 1.9227535e-01 -2.7284883e-03 
2.1283092e-01 1.9369864e-01 -3.4829893e-03 
2.1284994e-01 1.9357063e-01 -1.8695062e-03 
2.1198314e-01 1.9284824e-01 -3.5437113e-03 
2.1202417e-01 1.9268551e-01 -1.3069273e-03 
2.1118876e-01 1.9202442e-01 -3.3054033e-03 
2.1078441e-01 1.9149260e-01 -1.9499313e-03 
2.1121867e-01 1.9184941e-01 -1.0576849e-03 
2.1508926e-01 1.9606572e-01 -4.4308794e-03 
2.1146163e-01 1.9231850e-01 -3.5112500e-03 
2.1027605e-01 1.9090675e-01 -1.1547268e-03 
2.1015120e-01 1.9092461e-01 -2.7313929e-03 
2.1148163e-01 1.9217974e-01 -1.7643049e-03 
2.1224478e-01 1.9311532e-01 -3.5782603e-03 
2.1045843e-01 1.9131012e-01 -3.5609668e-03 
2.1222673e-01 1.9302125e-01 -2.7443033e-03 
2.1049605e-01 1.9114132e-01 -1.2887573e-03 
2.0944139e-01 1.9013560e-01 -1.9362177e-03 
2.0964707e-01 1.9046943e-01 -3.3219766e-03 
2.0967403e-01 1.9028826e-01 -1.0335367e-03 
2.0880233e-01 1.8956336e-01 -2.7343652e-03 
2.0883833e-01 1.8945380e-01 -1.1328165e-03 
2.1274538e-01 1.9369996e-01 -4.4474774e-03 
2.0978577e-01 1.9062555e-01 -3.5016495e-03 
2.0979679e-01 1.9048752e-01 -1.8587109e-03 
2.0890076e-01 1.8973908e-01 -3.5779879e-03 
2.0808761e-01 1.8876821e-01 -1.9225444e-03 
2.0893577e-01 1.8956497e-01 -1.2702083e-03 
2.0807201e-01 1.8888097e-01 -3.3384615e-03 
2.0809673e-01 1.8869442e-01 -1.0089369e-03 
2.0744286e-01 1.8819161e-01 -2.7371917e-03 
2.0740457e-01 1.8800691e-01 -1.1299781e-03 
2.0835693e-01 1.8918560e-01 -3.5306357e-03 
2.0837067e-01 1.8903832e-01 -1.7489502e-03 
2.0672312e-01 1.8739028e-01 -1.9087397e-03 
2.0878032e-01 1.8961860e-01 -3.5926304e-03 
2.0730914e-01 1.8813401e-01 -3.5949170e-03 
2.0877379e-01 1.8953347e-01 -2.7234901e-03 
2.0734234e-01 1.8795557e-01 -1.2515833e-03 
2.1038994e-01 1.9132258e-01 -4.4635613e-03 
2.0646229e-01 1.8725786e-01 -3.3549478e-03 
2.0648561e-01 1.8706678e-01 -9.8391750e-04 
2.0607263e-01 1.8680927e-01 -2.7398567e-03 
2.0612782e-01 1.8672191e-01 -1.1618119e-03 
2.0660733e-01 1.8741880e-01 -3.5194962e-03 
2.0534770e-01 1.8600139e-01 -1.8949059e-03 
2.0661342e-01 1.8727423e-01 -1.8496440e-03 
2.0568229e-01 1.8649375e-01 -3.6117416e-03 
2.0571476e-01 1.8631183e-01 -1.2326225e-03 
2.0469093e-01 1.8541548e-01 -2.7428197e-03 
2.0473368e-01 1.8531701e-01 -1.1759722e-03 
2.0481667e-01 1.8559887e-01 -3.3713428e-03 
2.0802356e-01 1.8893446e-01 -4.4792192e-03 
2.0483980e-01 1.8540448e-01 -9.5826271e-04 
2.0511477e-01 1.8591519e-01 -3.5489537e-03 
2.0396069e-01 1.8460125e-01 -1.8810972e-03 
2.0512539e-01 1.8576285e-01 -1.7348698e-03 
2.0405923e-01 1.8474534e-01 -2.3788379e-03 
2.0573729e-01 1.8654858e-01 -3.6073360e-03 
2.0573075e-01 1.8646298e-01 -2.7278226e-03 
2.0401901e-01 1.8481722e-01 -3.6284456e-03 
2.0405154e-01 1.8463279e-01 -1.2134861e-03 
2.0329794e-01 1.8401065e-01 -2.7455571e-03 
2.0335457e-01 1.8392150e-01 -1.1241097e-03 
2.0313385e-01 1.8390295e-01 -3.3878861e-03 
2.0315768e-01 1.8370557e-01 -9.3203905e-04 
2.0256224e-01 1.8318965e-01 -1.8668943e-03 
2.0564651e-01 1.8653645e-01 -4.4944407e-03 
2.0328580e-01 1.8406908e-01 -3.5362160e-03 
2.0329051e-01 1.8392192e-01 -1.8422980e-03 
2.0204163e-01 1.8259129e-01 -1.0551113e-03 
2.0189352e-01 1.8259452e-01 -2.7479248e-03 
2.0231767e-01 1.8310249e-01 -3.6449798e-03 
2.0235124e-01 1.8291660e-01 -1.1940523e-03 
2.0115225e-01 1.8176654e-01 -1.8523263e-03 
2.0141250e-01 1.8216826e-01 -3.4042469e-03 
2.0143782e-01 1.8196936e-01 -9.0566743e-04 
2.0172468e-01 1.8249710e-01 -3.5658295e-03 
2.0262301e-01 1.8341036e-01 -3.6475300e-03 
2.0173559e-01 1.8234354e-01 -1.7220651e-03 
2.0258917e-01 1.8330579e-01 -2.8597156e-03 
2.0047712e-01 1.8116678e-01 -2.7502941e-03 
2.0053552e-01 1.8107580e-01 -1.0851932e-03 
2.0325926e-01 1.8412939e-01 -4.5089959e-03 
2.0057712e-01 1.8134867e-01 -3.6611354e-03 
2.0061298e-01 1.8116258e-01 -1.1749375e-03 
1.9973058e-01 1.8033242e-01 -1.8377699e-03 
1.9965102e-01 1.8039387e-01 -3.4202079e-03 
1.9967911e-01 1.8019465e-01 -8.7892695e-04 
1.9904919e-01 1.7972758e-01 -2.7523725e-03 
1.9910829e-01 1.7963617e-01 -1.0656966e-03 
1.9981039e-01 1.8056579e-01 -3.5511181e-03 
1.9981787e-01 1.8042064e-01 -1.8368022e-03 
1.9829684e-01 1.7888686e-01 -1.8234075e-03 
1.9879586e-01 1.7955458e-01 -3.6767570e-03 
1.9883502e-01 1.7936926e-01 -1.1551774e-03 
2.0085977e-01 1.8171017e-01 -4.5224032e-03 
1.9784820e-01 1.7857845e-01 -3.4359926e-03 
1.9760908e-01 1.7827700e-01 -2.7545919e-03 
1.9766855e-01 1.7818442e-01 -1.0457303e-03 
1.9788004e-01 1.7837977e-01 -8.5094856e-04 
1.9911869e-01 1.7987934e-01 -3.6729914e-03 
1.9817565e-01 1.7892049e-01 -3.5806443e-03 
1.9908699e-01 1.7977965e-01 -2.9094594e-03 
1.9819169e-01 1.7877084e-01 -1.7107290e-03 
1.9685088e-01 1.7742874e-01 -1.8086954e-03 
1.9697264e-01 1.7771834e-01 -3.6923143e-03 
1.9701564e-01 1.7753509e-01 -1.1352723e-03 
1.9615638e-01 1.7681347e-01 -2.7567165e-03 
1.9621709e-01 1.7672041e-01 -1.0258191e-03 
1.9600223e-01 1.7671992e-01 -3.4516067e-03 
1.9603920e-01 1.7652340e-01 -8.2302454e-04 
1.9844954e-01 1.7928132e-01 -4.5351740e-03 
1.9539230e-01 1.7595860e-01 -1.7940761e-03 
1.9616973e-01 1.7689796e-01 -3.5642406e-03 
1.9618377e-01 1.7675911e-01 -1.8335643e-03 
1.9469129e-01 1.7533836e-01 -2.7587330e-03 
1.9475242e-01 1.7524409e-01 -1.0055971e-03 
1.9510503e-01 1.7583841e-01 -3.7068629e-03 
1.9515410e-01 1.7565875e-01 -1.1155434e-03 
1.9392119e-01 1.7447612e-01 -1.7788612e-03 
1.9411179e-01 1.7481720e-01 -3.4666474e-03 
1.9415458e-01 1.7462413e-01 -7.9418538e-04 
1.9544673e-01 1.7618164e-01 -3.7000845e-03 
1.9542170e-01 1.7609157e-01 -2.9651497e-03 
1.9428308e-01 1.7499818e-01 -3.5690498e-03 
1.9602865e-01 1.7684291e-01 -4.5472169e-03 
1.9321349e-01 1.7385043e-01 -2.7599540e-03 
1.9327563e-01 1.7375606e-01 -9.8560948e-04 
1.9430238e-01 1.7486514e-01 -1.8327622e-03 
1.9319260e-01 1.7391358e-01 -3.7210826e-03 
1.9324788e-01 1.7373863e-01 -1.0953558e-03 
1.9243735e-01 1.7298195e-01 -1.7639862e-03 
1.9217452e-01 1.7286856e-01 -3.4814093e-03 
1.9222565e-01 1.7268047e-01 -7.6492946e-04 
1.9172309e-01 1.7235133e-01 -2.7612629e-03 
1.9178547e-01 1.7225552e-01 -9.6505752e-04 
1.9235069e-01 1.7305289e-01 -3.5737210e-03 
1.9162963e-01 1.7215636e-01 -1.6234737e-03 
1.9237654e-01 1.7292693e-01 -1.8329530e-03 
1.9094068e-01 1.7147508e-01 -1.7484194e-03 
1.9359472e-01 1.7439127e-01 -4.5578056e-03 
1.9242786e-01 1.7314027e-01 -3.6869412e-03 
1.9123259e-01 1.7194223e-01 -3.7335409e-03 
1.9243680e-01 1.7307635e-01 -2.8503477e-03 
1.9129632e-01 1.7177387e-01 -1.0750665e-03 
1.9021931e-01 1.7083853e-01 -2.7619330e-03 
1.9028260e-01 1.7074274e-01 -9.4431150e-04 
1.9019035e-01 1.7087331e-01 -3.4944175e-03 
1.9024947e-01 1.7069124e-01 -7.3613931e-04 
1.8943092e-01 1.6995606e-01 -1.7334021e-03 
1.9037046e-01 1.7106055e-01 -3.5777278e-03 
1.9040391e-01 1.7094314e-01 -1.8335507e-03 
1.8922421e-01 1.6992296e-01 -3.7460090e-03 
1.8870273e-01 1.6931349e-01 -2.7629477e-03 
1.8876654e-01 1.6921699e-01 -9.2333916e-04 
1.8929699e-01 1.6976243e-01 -1.0543093e-03 
1.9114965e-01 1.7193122e-01 -4.5681759e-03 
1.8815574e-01 1.6882855e-01 -3.5082980e-03 
1.8790759e-01 1.6842358e-01 -1.7178998e-03 
1.8976367e-01 1.7041637e-01 -3.1830801e-03 
1.8972310e-01 1.7043112e-01 -3.8241956e-03 
1.8822534e-01 1.6865465e-01 -7.0520095e-04 
1.8834050e-01 1.6901936e-01 -3.5804538e-03 
1.8838255e-01 1.6891113e-01 -1.8351765e-03 
1.8717200e-01 1.6777524e-01 -2.7638960e-03 
1.8723647e-01 1.6767804e-01 -9.0221118e-04 
1.8716459e-01 1.6785322e-01 -3.7574952e-03 
1.8724859e-01 1.6770224e-01 -1.0336760e-03 
1.8636994e-01 1.6687751e-01 -1.7021976e-03 
1.8869369e-01 1.6946074e-01 -4.5760726e-03 
1.8606849e-01 1.6673219e-01 -3.5214485e-03 
1.8615063e-01 1.6656806e-01 -6.7356788e-04 
1.8562831e-01 1.6622500e-01 -2.7630886e-03 
1.8569317e-01 1.6612665e-01 -8.8156335e-04 
1.8730247e-01 1.6794226e-01 -3.1853153e-03 
1.8726286e-01 1.6795792e-01 -3.8313139e-03 
1.8622600e-01 1.6689445e-01 -3.5824145e-03 
1.8626049e-01 1.6677871e-01 -1.8245555e-03 
1.8522716e-01 1.6574708e-01 -1.9011585e-03 
1.8482104e-01 1.6532119e-01 -1.6859123e-03 
1.8506937e-01 1.6574921e-01 -3.7684292e-03 
1.8517664e-01 1.6561878e-01 -9.9831971e-04 
1.8408437e-01 1.6467348e-01 -2.7478985e-03 
1.8414988e-01 1.6457669e-01 -8.6606457e-04 
1.8396506e-01 1.6462095e-01 -3.5317168e-03 
1.8622671e-01 1.6698098e-01 -4.5827199e-03 
1.8408193e-01 1.6448964e-01 -6.4353569e-04 
1.8328400e-01 1.6377790e-01 -1.6707295e-03 
1.8407455e-01 1.6473444e-01 -3.5896744e-03 
1.8416813e-01 1.6467291e-01 -1.7627049e-03 
1.8483697e-01 1.6546613e-01 -3.1911801e-03 
1.8479840e-01 1.6548252e-01 -3.8386136e-03 
1.8317577e-01 1.6368672e-01 -1.8809243e-03 
1.8255268e-01 1.6313577e-01 -2.7323773e-03 
1.8298334e-01 1.6365568e-01 -3.7789820e-03 
1.8261749e-01 1.6303825e-01 -8.5043261e-04 
1.8312463e-01 1.6355696e-01 -9.5613644e-04 
1.8175878e-01 1.6224650e-01 -1.6545728e-03 
1.8190008e-01 1.6254970e-01 -3.5407988e-03 
1.8204756e-01 1.6244744e-01 -6.1438541e-04 
1.8376024e-01 1.6450360e-01 -4.5879553e-03 
1.8200678e-01 1.6266063e-01 -3.6005811e-03 
1.8213367e-01 1.6262646e-01 -1.6985023e-03 
1.8103147e-01 1.6160884e-01 -2.7171979e-03 
1.8109666e-01 1.6151263e-01 -8.3514530e-04 
1.8226823e-01 1.6293153e-01 -3.7033311e-03 
1.8232737e-01 1.6291720e-01 -2.8305207e-03 
1.8093503e-01 1.6160215e-01 -3.7883972e-03 
1.8110567e-01 1.6152894e-01 -9.1494113e-04 
1.8064164e-01 1.6114374e-01 -1.8537400e-03 
1.8024465e-01 1.6072799e-01 -1.6391503e-03 
1.8004638e-01 1.6043945e-01 -5.8523199e-04 
1.7987099e-01 1.6051596e-01 -3.5485635e-03 
1.7952235e-01 1.6009472e-01 -2.7011582e-03 
1.7958745e-01 1.5999968e-01 -8.2028570e-04 
1.8013139e-01 1.6061457e-01 -1.6360201e-03 
1.7997506e-01 1.6062467e-01 -3.6116445e-03 
1.8129945e-01 1.6203517e-01 -4.5926585e-03 
1.7874160e-01 1.5922146e-01 -1.6243026e-03 
1.7911924e-01 1.5953524e-01 -8.7485847e-04 
1.7892201e-01 1.5958597e-01 -3.7968007e-03 
1.7988202e-01 1.6055173e-01 -3.8515429e-03 
1.7971314e-01 1.6030052e-01 -2.8812769e-03 
1.7802410e-01 1.5859294e-01 -2.6851208e-03 
1.7805880e-01 1.5846910e-01 -8.2114519e-04 
1.7807710e-01 1.5846407e-01 -5.5503350e-04 
1.7787781e-01 1.5852001e-01 -3.5567991e-03 
1.7746618e-01 1.5796578e-01 -1.8811874e-03 
1.7724927e-01 1.5772562e-01 -1.6084288e-03 
1.7816015e-01 1.5863501e-01 -1.5760718e-03 
1.7775297e-01 1.5839466e-01 -3.5704065e-03 
1.7716327e-01 1.5757461e-01 -8.3716592e-04 
1.7694451e-01 1.5760548e-01 -3.8038357e-03 
1.7653589e-01 1.5710126e-01 -2.6682110e-03 
1.7884643e-01 1.5957755e-01 -4.5966450e-03 
1.7660047e-01 1.5700728e-01 -7.8999985e-04 
1.7638429e-01 1.5687478e-01 -1.7835146e-03 
1.7747018e-01 1.5805359e-01 -2.8732163e-03 
1.7576769e-01 1.5624218e-01 -1.5933058e-03 
1.7613712e-01 1.5652208e-01 -5.2889140e-04 
1.7591868e-01 1.5655853e-01 -3.5616518e-03 
1.7743216e-01 1.5809861e-01 -3.8552689e-03 
1.7622046e-01 1.5668966e-01 -1.5166671e-03 
1.7601782e-01 1.5666243e-01 -3.6299964e-03 
1.7505871e-01 1.5562221e-01 -2.6521911e-03 
1.7512344e-01 1.5552881e-01 -7.7515683e-04 
1.7523859e-01 1.5564671e-01 -7.9892029e-04 
1.7500082e-01 1.5566047e-01 -3.8090993e-03 
1.7454773e-01 1.5501623e-01 -1.5224513e-03 
1.7429608e-01 1.5476978e-01 -1.5782309e-03 
1.7639689e-01 1.5712513e-01 -4.5982725e-03 
1.7422825e-01 1.5461145e-01 -5.0034141e-04 
1.7399231e-01 1.5463217e-01 -3.5666954e-03 
1.7523253e-01 1.5579033e-01 -2.5909797e-03 
1.7505036e-01 1.5569423e-01 -3.6199293e-03 
1.7359132e-01 1.5415427e-01 -2.6353856e-03 
1.7431067e-01 1.5477443e-01 -1.4594640e-03 
1.7351350e-01 1.5391111e-01 -6.7277247e-04 
1.7408937e-01 1.5473428e-01 -3.6391150e-03 
1.7283408e-01 1.5330772e-01 -1.5638225e-03 
1.7334278e-01 1.5374845e-01 -7.6092721e-04 
1.7308944e-01 1.5374975e-01 -3.8133853e-03 
1.7219910e-01 1.5260454e-01 -7.4641942e-04 
1.7210855e-01 1.5266238e-01 -2.5149316e-03 
1.7234829e-01 1.5273090e-01 -4.7290957e-04 
1.7209691e-01 1.5273845e-01 -3.5705592e-03 
1.7395231e-01 1.5467848e-01 -4.5975223e-03 
1.7173921e-01 1.5225318e-01 -2.0379734e-03 
1.7242989e-01 1.5289125e-01 -1.4040684e-03 
1.7219208e-01 1.5283827e-01 -3.6475635e-03 
1.7138276e-01 1.5185744e-01 -1.5498489e-03 
1.7147550e-01 1.5188223e-01 -7.2594802e-04 
1.7254753e-01 1.5321159e-01 -3.8572841e-03 
1.7258142e-01 1.5319175e-01 -3.2122461e-03 
1.7095521e-01 1.5135421e-01 -6.4208463e-04 
1.7120832e-01 1.5186939e-01 -3.8159944e-03 
1.7082207e-01 1.5139599e-01 -2.7352406e-03 
1.7199259e-01 1.5251461e-01 -2.1410047e-03 
1.7170493e-01 1.5234382e-01 -3.5557398e-03 
1.7049560e-01 1.5088010e-01 -4.4702255e-04 
1.7023449e-01 1.5087761e-01 -3.5698162e-03 
1.6994205e-01 1.5041798e-01 -1.5353075e-03 
1.7057696e-01 1.5103641e-01 -1.3503054e-03 
1.7032737e-01 1.5097612e-01 -3.6548865e-03 
1.7151268e-01 1.5223913e-01 -4.5940671e-03 
1.6936143e-01 1.4976025e-01 -5.9309590e-04 
1.6923548e-01 1.4981300e-01 -2.7394558e-03 
1.6963650e-01 1.5004309e-01 -6.9119188e-04 
1.6935951e-01 1.5002422e-01 -3.8183862e-03 
1.6851132e-01 1.4898908e-01 -1.5205512e-03 
1.7011422e-01 1.5078120e-01 -3.8550515e-03 
1.7014685e-01 1.5076087e-01 -3.2117758e-03 
1.6867143e-01 1.4905709e-01 -4.1954772e-04 
1.6840155e-01 1.4904937e-01 -3.5709522e-03 
1.6875175e-01 1.4921089e-01 -1.2978661e-03 
1.6770197e-01 1.4827934e-01 -2.6963900e-03 
1.6830137e-01 1.4895785e-01 -3.6973429e-03 
1.6867481e-01 1.4919762e-01 -2.0706831e-03 
1.6754703e-01 1.4794847e-01 -5.7203171e-04 
1.6782422e-01 1.4823309e-01 -6.5722276e-04 
1.6754052e-01 1.4820896e-01 -3.8181755e-03 
1.6708928e-01 1.4757061e-01 -1.5061821e-03 
1.6908102e-01 1.4980984e-01 -4.5881160e-03 
1.6672161e-01 1.4723849e-01 -1.9338736e-03 
1.6687295e-01 1.4726354e-01 -3.9395131e-04 
1.6759525e-01 1.4824130e-01 -3.5426691e-03 
1.6642758e-01 1.4699036e-01 -2.4675238e-03 
1.6659802e-01 1.4724958e-01 -3.5703478e-03 
1.6647135e-01 1.4688669e-01 -6.9135416e-04 
1.6695280e-01 1.4741369e-01 -1.2467386e-03 
1.6768785e-01 1.4835910e-01 -3.8504396e-03 
1.6771972e-01 1.4833833e-01 -3.2085713e-03 
1.6668710e-01 1.4734481e-01 -3.6660491e-03 
1.6589399e-01 1.4629510e-01 -4.8552008e-04 
1.6567744e-01 1.4616285e-01 -1.4923249e-03 
1.6603798e-01 1.4645125e-01 -6.2274822e-04 
1.6574989e-01 1.4642355e-01 -3.8173930e-03 
1.6527645e-01 1.4569736e-01 -6.9570116e-04 
1.6499920e-01 1.4557202e-01 -2.5282316e-03 
1.6510065e-01 1.4549525e-01 -3.6837123e-04 
1.6482225e-01 1.4548060e-01 -3.5688123e-03 
1.6665497e-01 1.4738913e-01 -4.5813085e-03 
1.6517930e-01 1.4564317e-01 -1.1971160e-03 
1.6427481e-01 1.4476499e-01 -1.4779516e-03 
1.6472425e-01 1.4539224e-01 -3.7036720e-03 
1.6408588e-01 1.4449708e-01 -5.1491981e-04 
1.6509470e-01 1.4563276e-01 -2.1135069e-03 
1.6427706e-01 1.4469539e-01 -5.9061585e-04 
1.6405478e-01 1.4455722e-01 -1.6223857e-03 
1.6369288e-01 1.4428636e-01 -2.7121576e-03 
1.6526693e-01 1.4594580e-01 -3.8449336e-03 
1.6398716e-01 1.4466718e-01 -3.8156409e-03 
1.6529788e-01 1.4592472e-01 -3.2049261e-03 
1.6335291e-01 1.4375499e-01 -3.4456834e-04 
1.6404319e-01 1.4469850e-01 -3.5125529e-03 