# vtk DataFile Version 4.0
vtk output
ASCII
DATASET UNSTRUCTURED_GRID
POINTS 4496 float
-4.3633327e-01 9.6409470e-01 4.4200001e+01 
-4.3633258e-01 9.6409065e-01 4.4074627e+01 
-3.2152572e-01 9.1279918e-01 4.4200001e+01 
-3.8534868e-01 8.4052670e-01 4.4200001e+01 
-3.9589554e-01 8.5545403e-01 4.4010014e+01 
-3.2616228e-01 9.1667932e-01 4.4011734e+01 
-4.3633190e-01 9.6408653e-01 4.3948376e+01 
-2.1293370e-01 8.4677851e-01 4.4200001e+01 
-2.9042658e-01 7.3813015e-01 4.4200001e+01 
-2.1010752e-01 8.4669363e-01 4.4073502e+01 
-2.8908840e-01 7.3604190e-01 4.4072292e+01 
-3.9589015e-01 8.5505831e-01 4.3883316e+01 
-3.2487559e-01 9.1697580e-01 4.3885036e+01 
-2.0722924e-01 8.4660655e-01 4.3944645e+01 
-1.1981077e-01 7.7773046e-01 4.4200001e+01 
-2.8772619e-01 7.3391593e-01 4.3942276e+01 
-4.3633121e-01 9.6408242e-01 4.3821228e+01 
-1.9739023e-01 6.6468561e-01 4.4200001e+01 
-2.9444304e-01 7.8727525e-01 4.3879974e+01 
-8.7554991e-02 7.5255024e-01 4.4042213e+01 
-1.6445170e-01 6.4084798e-01 4.4041008e+01 
-3.2357255e-01 9.1726828e-01 4.3757431e+01 
-3.9587301e-01 8.5463828e-01 4.3755711e+01 
-2.0429766e-01 8.4651643e-01 4.3813354e+01 
-2.8633916e-01 7.3175091e-01 4.3809875e+01 
-2.6899619e-02 6.8901783e-01 4.4200001e+01 
-1.0567340e-01 7.7152997e-01 4.3875790e+01 
-4.3633053e-01 9.6407831e-01 4.3693161e+01 
-8.7133333e-02 5.9509218e-01 4.4200001e+01 
-1.8777622e-01 6.5475601e-01 4.3873402e+01 
-2.0131156e-01 8.4642249e-01 4.3679543e+01 
-3.2225290e-01 9.1755641e-01 4.3628902e+01 
-3.9584404e-01 8.5419410e-01 4.3627178e+01 
-1.0114321e-03 6.6670936e-01 4.3939713e+01 
-2.8492665e-01 7.2954547e-01 4.3675007e+01 
-1.0131179e-01 7.7015632e-01 4.3743176e+01 
-6.0682178e-02 5.7631296e-01 4.3938457e+01 
3.9444737e-02 6.2338209e-01 4.4053139e+01 
-1.8470748e-01 6.5131217e-01 4.3739727e+01 
-7.0938184e-03 5.4737431e-01 4.4052326e+01 
-4.3632981e-01 9.6407413e-01 4.3564159e+01 
7.6947339e-02 5.8804804e-01 4.4200001e+01 
-1.2721874e-02 6.8194175e-01 4.3817982e+01 
-7.7214435e-02 5.8474159e-01 4.3819649e+01 
4.0195532e-02 5.2425718e-01 4.4200001e+01 
-1.9826968e-01 8.4632379e-01 4.3543118e+01 
-9.6842363e-02 7.6872379e-01 4.3607994e+01 
-3.2091641e-01 9.1783977e-01 4.3499420e+01 
-3.9580306e-01 8.5372573e-01 4.3497700e+01 
-2.8348783e-01 7.2729832e-01 4.3537586e+01 
-1.8155001e-01 6.4778340e-01 4.3603539e+01 
1.5678726e-01 5.2239102e-01 4.4060219e+01 
1.0298219e-02 6.6009766e-01 4.3674484e+01 
1.3250886e-01 4.7546524e-01 4.4058990e+01 
-4.3632913e-01 9.6407002e-01 4.3434200e+01 
-5.0139543e-02 5.6696451e-01 4.3671154e+01 
1.3504514e-01 5.4209155e-01 4.3856747e+01 
1.0361936e-01 4.8715758e-01 4.3855240e+01 
2.0846681e-01 4.8028421e-01 4.4200001e+01 
1.9279444e-01 4.4799727e-01 4.4200001e+01 
-9.2261828e-02 7.6722860e-01 4.3470158e+01 
-1.4701239e-03 6.7547697e-01 4.3552124e+01 
-1.9517080e-01 8.4621930e-01 4.3403992e+01 
-3.1956279e-01 9.1811794e-01 4.3368977e+01 
-3.9574999e-01 8.5323322e-01 4.3367252e+01 
-1.7830023e-01 6.4416617e-01 4.3464752e+01 
-6.7131944e-02 5.7555372e-01 4.3547829e+01 
-2.8202194e-01 7.2500783e-01 4.3397518e+01 
-4.3632844e-01 9.6406585e-01 4.3303261e+01 
1.5138821e-01 5.3037512e-01 4.3609200e+01 
1.2119007e-01 4.7490793e-01 4.3606068e+01 
-8.7566733e-02 7.6566672e-01 4.3329563e+01 
-1.7495437e-01 6.4045686e-01 4.3323273e+01 
-3.1819177e-01 9.1839045e-01 4.3237537e+01 
-3.9568463e-01 8.5271639e-01 4.3235813e+01 
2.2269404e-02 6.5294570e-01 4.3398811e+01 
-1.9201367e-01 8.4610778e-01 4.3262066e+01 
-3.8899176e-02 5.5709696e-01 4.3393635e+01 
-2.8052819e-01 7.2267252e-01 4.3254715e+01 
3.7877345e-01 3.8273901e-01 4.4200001e+01 
-4.3632776e-01 9.6406174e-01 4.3171322e+01 
3.9241230e-01 3.7329337e-01 4.3965439e+01 
1.0283732e-02 6.6872352e-01 4.3271511e+01 
-5.6385640e-02 5.6585240e-01 4.3265472e+01 
-8.2753494e-02 7.6403379e-01 4.3186119e+01 
-4.0345609e-01 8.6371827e-01 4.3104889e+01 
-3.1680310e-01 9.1865683e-01 4.3105087e+01 
-1.7150842e-01 6.3665158e-01 4.3179005e+01 
-1.8879703e-01 8.4598809e-01 4.3117241e+01 
-2.7900568e-01 7.2029078e-01 4.3109074e+01 
4.0610775e-01 3.6380205e-01 4.3729839e+01 
1.6776134e-01 5.1882964e-01 4.3331150e+01 
-4.3632707e-01 9.6405768e-01 4.3038357e+01 
1.4031014e-01 4.6124566e-01 4.3307755e+01 
3.4952711e-02 6.4519531e-01 4.3111935e+01 
-7.7818394e-02 7.6232505e-01 4.3039719e+01 
-3.1539652e-01 9.1891652e-01 4.2971603e+01 
-3.9551663e-01 8.5160977e-01 4.2969879e+01 
-2.6899155e-02 5.4666573e-01 4.3105160e+01 
-1.6795819e-01 6.3274628e-01 4.3031849e+01 
-1.8551964e-01 8.4585863e-01 4.2969406e+01 
4.1985780e-01 3.5425979e-01 4.3493168e+01 
-2.7745360e-01 7.1786088e-01 4.2960495e+01 
-4.3632638e-01 9.6405357e-01 4.2904346e+01 
2.2723136e-02 6.6139150e-01 4.2979332e+01 
-4.4916678e-02 5.5559248e-01 4.2971806e+01 
-3.1397179e-01 9.1916907e-01 4.2837063e+01 
-3.9541367e-01 8.5101974e-01 4.2835335e+01 
-7.2757579e-02 7.6053542e-01 4.2890255e+01 
-1.6429928e-01 6.2873662e-01 4.2881699e+01 
1.8463810e-01 5.0694346e-01 4.3035332e+01 
-1.8218029e-01 8.4571803e-01 4.2818455e+01 
1.5503895e-01 4.5003417e-01 4.3027725e+01 
-2.7587104e-01 7.1538109e-01 4.2808868e+01 
4.3366045e-01 3.4466109e-01 4.3255390e+01 
-4.3632573e-01 9.6404958e-01 4.2769268e+01 
-3.8429454e-01 8.3484912e-01 4.2710606e+01 
-3.1252861e-01 9.1941386e-01 4.2701439e+01 
4.8404284e-02 6.3678014e-01 4.2813030e+01 
-1.4070326e-02 5.3562075e-01 4.2804932e+01 
-6.7567028e-02 7.5865942e-01 4.2737610e+01 
-1.6052702e-01 6.2461799e-01 4.2728443e+01 
-1.7877772e-01 8.4556442e-01 4.2664265e+01 
-4.3632504e-01 9.6404558e-01 4.2633099e+01 
-2.7425703e-01 7.1284944e-01 4.2654083e+01 
4.4751364e-01 3.3500037e-01 4.3016472e+01 
3.5901129e-02 6.5341437e-01 4.2674721e+01 
-3.7959340e-01 8.2794034e-01 4.2568317e+01 
-3.1106678e-01 9.1965032e-01 4.2564713e+01 
-3.2659348e-02 5.4472327e-01 4.2665997e+01 
2.0396979e-01 4.9291667e-01 4.2740131e+01 
-6.2242586e-02 7.5669110e-01 4.2581669e+01 
1.7765003e-01 4.3475360e-01 4.2732578e+01 
-1.5663649e-01 6.2038553e-01 4.2571964e+01 
-4.3632439e-01 9.6404165e-01 4.2495808e+01 
-1.7531081e-01 8.4539592e-01 4.2506718e+01 
-2.7261066e-01 7.1026409e-01 4.2496017e+01 
-3.0958602e-01 9.1987789e-01 4.2426853e+01 
-3.7859210e-01 8.2613736e-01 4.2421188e+01 
4.6141517e-01 3.2527190e-01 4.2776375e+01 
6.2686495e-02 6.2762415e-01 4.2501175e+01 
-3.3570320e-04 5.2390522e-01 4.2492062e+01 
-5.6779940e-02 7.5462401e-01 4.2422298e+01 
-4.3632373e-01 9.6403772e-01 4.2357380e+01 
-1.5262254e-01 6.1603409e-01 4.2412144e+01 
-1.7177837e-01 8.4521037e-01 4.2345684e+01 
-2.7093092e-01 7.0762289e-01 4.2334549e+01 
-3.0808610e-01 9.2009580e-01 4.2287842e+01 
-3.8275370e-01 8.3137155e-01 4.2275047e+01 
4.9876589e-02 6.4471585e-01 4.2356720e+01 
-1.9539909e-02 5.3318781e-01 4.2347118e+01 
-4.3632311e-01 9.6403396e-01 4.2217781e+01 
2.1959943e-01 4.8236796e-01 4.2385345e+01 
-5.1174615e-02 7.5245124e-01 4.2259373e+01 
1.9034323e-01 4.2346162e-01 4.2378918e+01 
-1.4847966e-01 6.1155808e-01 4.2248856e+01 
4.7536272e-01 3.1546980e-01 4.2535065e+01 
-1.6817927e-01 8.4500539e-01 4.2181026e+01 
-2.6921678e-01 7.0492369e-01 4.2169544e+01 
-3.0656675e-01 9.2030340e-01 4.2147648e+01 
-3.9470181e-01 8.4769493e-01 4.2145920e+01 
7.7868804e-02 6.1763972e-01 4.2175373e+01 
-4.3632248e-01 9.6403021e-01 4.2076988e+01 
1.4390758e-02 5.1145434e-01 4.2165581e+01 
-4.5421973e-02 7.5016522e-01 4.2092751e+01 
-1.4420210e-01 6.0695171e-01 4.2081959e+01 
-3.0502778e-01 9.2049998e-01 4.2006248e+01 
-4.0175444e-01 8.5747409e-01 4.2004128e+01 
-1.6451253e-01 8.4477836e-01 4.2012604e+01 
4.8935395e-01 3.0558801e-01 4.2292507e+01 
-2.6746723e-01 7.0216429e-01 4.2000870e+01 
6.4714879e-02 6.3520777e-01 4.2024277e+01 
-4.3632188e-01 9.6402657e-01 4.1934975e+01 
-5.4755262e-03 5.2092212e-01 4.2014156e+01 
-2.3078828e-01 8.1064087e-01 4.1931458e+01 
2.3550548e-01 4.7116494e-01 4.2073269e+01 
2.0610523e-01 4.1123796e-01 4.2066772e+01 
-3.9517213e-02 7.4775779e-01 4.1922287e+01 
-1.3978374e-01 6.0220873e-01 4.1911320e+01 
-3.0346894e-01 9.2068475e-01 4.1863613e+01 
-3.9432141e-01 8.4618556e-01 4.1861881e+01 
-1.6077711e-01 8.4452641e-01 4.1840263e+01 
-2.6568118e-01 6.9934219e-01 4.1828377e+01 
-4.3632129e-01 9.6402299e-01 4.1791718e+01 
5.0338638e-01 2.9562023e-01 4.2048656e+01 
9.4028555e-02 6.0672593e-01 4.1834507e+01 
3.0205652e-02 4.9819478e-01 4.1824417e+01 
-3.8116732e-01 8.2744831e-01 4.1725647e+01 
-3.0189002e-01 9.2085695e-01 4.1719719e+01 
-3.3455357e-02 7.4522001e-01 4.1747829e+01 
-1.3521814e-01 5.9732240e-01 4.1736786e+01 
-4.3632072e-01 9.6401960e-01 4.1647179e+01 
-1.5697217e-01 8.4424627e-01 4.1663853e+01 
-2.6385748e-01 6.9645494e-01 4.1651920e+01 
8.0488607e-02 6.2478805e-01 4.1676235e+01 
2.6870471e-01 4.4547972e-01 4.1752304e+01 
9.6269641e-03 5.0785345e-01 4.1665993e+01 
2.4764967e-01 3.8646612e-01 4.1743168e+01 
-3.0029076e-01 9.2101562e-01 4.1574532e+01 
-3.9388368e-01 8.4456980e-01 4.1572796e+01 
5.1745731e-01 2.8556010e-01 4.1803486e+01 
-2.7231261e-02 7.4254233e-01 4.1569210e+01 
-1.3049847e-01 5.9228569e-01 4.1558201e+01 
-4.3632016e-01 9.6401632e-01 4.1501339e+01 
-1.5309690e-01 8.4393430e-01 4.1483204e+01 
-2.6199502e-01 6.9349992e-01 4.1471333e+01 
-2.9867104e-01 9.2115986e-01 4.1428024e+01 
-3.9364263e-01 8.4372103e-01 4.1426289e+01 
1.1125199e-01 5.9476525e-01 4.1477348e+01 
4.7217656e-02 4.8404291e-01 4.1467384e+01 
-4.3631962e-01 9.6401310e-01 4.1354160e+01 
-2.0839609e-02 7.3971421e-01 4.1386261e+01 
-1.2561750e-01 5.8709091e-01 4.1375404e+01 
5.3156406e-01 2.7540097e-01 4.1556946e+01 
-1.4915068e-01 8.4358656e-01 4.1298138e+01 
-2.9703063e-01 9.2128879e-01 4.1280167e+01 
-3.9338648e-01 8.4284443e-01 4.1278431e+01 
-2.6009262e-01 6.9047421e-01 4.1286449e+01 
2.9365057e-01 4.2687622e-01 4.1391586e+01 
9.7278498e-02 6.1333776e-01 4.1311302e+01 
2.7470219e-01 3.6807936e-01 4.1382729e+01 
2.5872495e-02 4.9389899e-01 4.1301384e+01 
-4.3631911e-01 9.6401012e-01 4.1205620e+01 
-1.4274905e-02 7.3672432e-01 4.1198803e+01 
-1.2056758e-01 5.8173001e-01 4.1188221e+01 
-2.9536936e-01 9.2140132e-01 4.1130928e+01 
[...]
POINT_DATA 4496
FIELD FieldData 5
DISPLACEMENT 3 4496  float
1.1544656e-02 1.1777215e-02 -1.2602862e-04 
1.1497482e-02 1.1718700e-02 -1.2600377e-04 
1.1559722e-02 1.1810954e-02 -1.4531198e-04 
1.1580977e-02 1.1792212e-02 -8.7561530e-05 
1.1505098e-02 1.1700441e-02 -9.0523936e-05 
1.1487740e-02 1.1721718e-02 -1.4534160e-04 
1.1449984e-02 1.1659788e-02 -1.2597768e-04 
1.1579122e-02 1.1842878e-02 -1.5538897e-04 
1.1611075e-02 1.1820121e-02 -7.5511343e-05 
1.1531540e-02 1.1784660e-02 -1.5638967e-04 
1.1563625e-02 1.1760903e-02 -7.5016724e-05 
1.1457546e-02 1.1641323e-02 -9.0317393e-05 
1.1439988e-02 1.1662970e-02 -1.4594101e-04 
1.1483079e-02 1.1725352e-02 -1.5740618e-04 
1.1599418e-02 1.1870260e-02 -1.5823288e-04 
1.1515317e-02 1.1700623e-02 -7.4517688e-05 
1.1402162e-02 1.1600471e-02 -1.2594978e-04 
1.1632668e-02 1.1847479e-02 -7.6263692e-05 
1.1476193e-02 1.1669565e-02 -9.6877782e-05 
1.1547431e-02 1.1806083e-02 -1.5859924e-04 
1.1579826e-02 1.1782937e-02 -7.7511431e-05 
1.1391914e-02 1.1603816e-02 -1.4653038e-04 
1.1409665e-02 1.1581802e-02 -9.0109890e-05 
1.1433709e-02 1.1664931e-02 -1.5843949e-04 
1.1466124e-02 1.1639242e-02 -7.4008800e-05 
1.1625501e-02 1.1897596e-02 -1.5182073e-04 
1.1479223e-02 1.1723052e-02 -1.6059817e-04 
1.1354027e-02 1.1540745e-02 -1.2591619e-04 
1.1653136e-02 1.1879907e-02 -8.5291511e-05 
1.1512643e-02 1.1697840e-02 -7.5193224e-05 
1.1383410e-02 1.1603359e-02 -1.5948599e-04 
1.1343511e-02 1.1544248e-02 -1.4712899e-04 
1.1361464e-02 1.1521880e-02 -8.9902569e-05 
1.1534077e-02 1.1783661e-02 -1.5111278e-04 
1.1416016e-02 1.1576734e-02 -7.3494863e-05 
1.1429728e-02 1.1662417e-02 -1.6156893e-04 
1.1560182e-02 1.1765558e-02 -8.6436325e-05 
1.1589512e-02 1.1848538e-02 -1.4614628e-04 
1.1463328e-02 1.1636348e-02 -7.4723313e-05 
1.1611570e-02 1.1834491e-02 -9.3124734e-05 
1.1305547e-02 1.1480628e-02 -1.2588414e-04 
1.1655203e-02 1.1928171e-02 -1.4380128e-04 
1.1483777e-02 1.1723364e-02 -1.5378968e-04 
1.1512967e-02 1.1705223e-02 -8.4125953e-05 
1.1673982e-02 1.1917374e-02 -1.0016654e-04 
1.1332141e-02 1.1540593e-02 -1.6054623e-04 
1.1379292e-02 1.1600620e-02 -1.6254841e-04 
1.1294775e-02 1.1484274e-02 -1.4772087e-04 
1.1312926e-02 1.1461540e-02 -8.9672387e-05 
1.1364979e-02 1.1513062e-02 -7.2973111e-05 
1.1413101e-02 1.1573717e-02 -7.4246382e-05 
1.1621878e-02 1.1886373e-02 -1.4319780e-04 
1.1436173e-02 1.1663101e-02 -1.5223800e-04 
1.1635223e-02 1.1878666e-02 -1.1212660e-04 
1.1256743e-02 1.1420070e-02 -1.2584275e-04 
1.1462261e-02 1.1643831e-02 -8.6000793e-05 
1.1539450e-02 1.1784898e-02 -1.4417467e-04 
1.1555028e-02 1.1774972e-02 -1.0666458e-04 
1.1686922e-02 1.1966909e-02 -1.4302826e-04 
1.1696429e-02 1.1962304e-02 -1.2203159e-04 
1.1327891e-02 1.1537622e-02 -1.6354158e-04 
1.1385615e-02 1.1602507e-02 -1.5495226e-04 
1.1279883e-02 1.1476611e-02 -1.6162272e-04 
1.1245689e-02 1.1423869e-02 -1.4832249e-04 
1.1264053e-02 1.1400786e-02 -8.9448491e-05 
1.1361927e-02 1.1509922e-02 -7.3773663e-05 
1.1413299e-02 1.1581273e-02 -8.3604777e-05 
1.1312962e-02 1.1448188e-02 -7.2448180e-05 
1.1207586e-02 1.1359104e-02 -1.2580624e-04 
1.1449644e-02 1.1673992e-02 -1.4482040e-04 
1.1464735e-02 1.1663689e-02 -1.0751863e-04 
1.1275491e-02 1.1473397e-02 -1.6453229e-04 
1.1309771e-02 1.1444913e-02 -7.3290146e-05 
1.1196272e-02 1.1363055e-02 -1.4891299e-04 
1.1214846e-02 1.1339613e-02 -8.9221328e-05 
1.1334523e-02 1.1537869e-02 -1.5334655e-04 
1.1226600e-02 1.1411359e-02 -1.6270630e-04 
1.1360648e-02 1.1517560e-02 -8.5595122e-05 
1.1259946e-02 1.1382077e-02 -7.1914685e-05 
1.1715630e-02 1.2017050e-02 -1.6162964e-04 
1.1158082e-02 1.1297700e-02 -1.2577075e-04 
1.1630009e-02 1.1911372e-02 -1.6231285e-04 
1.1282023e-02 1.1474934e-02 -1.5615640e-04 
1.1309833e-02 1.1452643e-02 -8.3099556e-05 
1.1222065e-02 1.1407892e-02 -1.6553482e-04 
1.1162463e-02 1.1276409e-02 -9.1415262e-05 
1.1146476e-02 1.1301780e-02 -1.4951767e-04 
1.1256622e-02 1.1378675e-02 -7.2810166e-05 
1.1172264e-02 1.1344820e-02 -1.6380225e-04 
1.1205921e-02 1.1314709e-02 -7.1361610e-05 
1.1543971e-02 1.1805172e-02 -1.6299532e-04 
1.1348292e-02 1.1548841e-02 -1.4555271e-04 
1.1108215e-02 1.1235880e-02 -1.2573328e-04 
1.1356321e-02 1.1529896e-02 -1.0830378e-04 
1.1228882e-02 1.1407659e-02 -1.5443491e-04 
1.1167578e-02 1.1341081e-02 -1.6653507e-04 
1.1096367e-02 1.1240096e-02 -1.5009906e-04 
1.1115348e-02 1.1215948e-02 -8.8733701e-05 
1.1255099e-02 1.1386462e-02 -8.5223008e-05 
1.1202416e-02 1.1311145e-02 -7.2318857e-05 
1.1116835e-02 1.1276925e-02 -1.6490270e-04 
1.1457510e-02 1.1698384e-02 -1.6367770e-04 
1.1150807e-02 1.1246014e-02 -7.0815506e-05 
1.1058030e-02 1.1173597e-02 -1.2567661e-04 
1.1174320e-02 1.1342238e-02 -1.5733592e-04 
1.1202315e-02 1.1319047e-02 -8.2625644e-05 
1.1045882e-02 1.1177962e-02 -1.5070334e-04 
1.1065087e-02 1.1153479e-02 -8.8493929e-05 
1.1111996e-02 1.1272908e-02 -1.6754412e-04 
1.1147158e-02 1.1242314e-02 -7.1839226e-05 
1.1240372e-02 1.1415548e-02 -1.4631792e-04 
1.1060274e-02 1.1207636e-02 -1.6601018e-04 
1.1254096e-02 1.1403387e-02 -1.0859447e-04 
1.1094623e-02 1.1176000e-02 -7.0270347e-05 
1.1370637e-02 1.1591098e-02 -1.6439268e-04 
1.1007450e-02 1.1110925e-02 -1.2562276e-04 
1.1023045e-02 1.1098831e-02 -8.5123036e-05 
1.0995050e-02 1.1115420e-02 -1.5127161e-04 
1.1118992e-02 1.1272174e-02 -1.5549369e-04 
1.1145359e-02 1.1250257e-02 -8.4906729e-05 
1.1055267e-02 1.1203353e-02 -1.6855221e-04 
1.1090771e-02 1.1172122e-02 -7.1342096e-05 
1.1002577e-02 1.1136968e-02 -1.6712252e-04 
1.0956530e-02 1.1047801e-02 -1.2555471e-04 
1.1037287e-02 1.1104553e-02 -6.9707858e-05 
1.1283323e-02 1.1483250e-02 -1.6507956e-04 
1.1062237e-02 1.1204118e-02 -1.5848217e-04 
1.0971789e-02 1.1034225e-02 -8.3637096e-05 
1.0943858e-02 1.1052413e-02 -1.5182048e-04 
1.1090477e-02 1.1180202e-02 -8.2195664e-05 
1.1133347e-02 1.1283338e-02 -1.4701641e-04 
1.0997409e-02 1.1132366e-02 -1.6957305e-04 
1.1147376e-02 1.1272196e-02 -1.0997871e-04 
1.1033266e-02 1.1100545e-02 -7.0891969e-05 
1.0905263e-02 1.0984218e-02 -1.2545934e-04 
1.0943661e-02 1.1064825e-02 -1.6825930e-04 
1.0978784e-02 1.1031725e-02 -6.9149108e-05 
1.0892269e-02 1.0988972e-02 -1.5240123e-04 
1.0917279e-02 1.0966419e-02 -8.3169034e-05 
1.1195643e-02 1.1374990e-02 -1.6575863e-04 
1.1004588e-02 1.1131097e-02 -1.5649937e-04 
1.1031168e-02 1.1108648e-02 -8.4639454e-05 
1.0938335e-02 1.1059914e-02 -1.7055192e-04 
1.0853597e-02 1.0920233e-02 -1.2538419e-04 
1.0974565e-02 1.1027532e-02 -7.0410875e-05 
1.0883524e-02 1.0991178e-02 -1.6937638e-04 
1.0919082e-02 1.0957436e-02 -6.8581816e-05 
1.0840340e-02 1.0925105e-02 -1.5295940e-04 
1.0861174e-02 1.0897689e-02 -8.4032639e-05 
1.0945508e-02 1.1060230e-02 -1.5956699e-04 
1.0974093e-02 1.1035807e-02 -8.1800856e-05 
1.0801579e-02 1.0855826e-02 -1.2529803e-04 
1.1003037e-02 1.1122490e-02 -1.4794886e-04 
1.0878031e-02 1.0985957e-02 -1.7152740e-04 
1.1017614e-02 1.1111082e-02 -1.0954549e-04 
1.0914662e-02 1.0953079e-02 -6.9937305e-05 
1.1107539e-02 1.1266181e-02 -1.6641741e-04 
1.0822116e-02 1.0915988e-02 -1.7049845e-04 
1.0858127e-02 1.0881639e-02 -6.8010566e-05 
1.0788064e-02 1.0860832e-02 -1.5349622e-04 
1.0808326e-02 1.0834706e-02 -8.7106870e-05 
1.0885407e-02 1.0984141e-02 -1.5744887e-04 
1.0749185e-02 1.0790951e-02 -1.2521846e-04 
1.0912275e-02 1.0961368e-02 -8.4474472e-05 
1.0816457e-02 1.0910453e-02 -1.7250047e-04 
1.0853549e-02 1.0877118e-02 -6.9444977e-05 
1.0735329e-02 1.0796031e-02 -1.5408093e-04 
1.0752638e-02 1.0767333e-02 -8.8977737e-05 
1.0759396e-02 1.0839212e-02 -1.7162228e-04 
1.1019039e-02 1.1156891e-02 -1.6708384e-04 
1.0795950e-02 1.0804344e-02 -6.7403795e-05 
1.0823879e-02 1.0910350e-02 -1.6058130e-04 
1.0696319e-02 1.0725592e-02 -1.2514825e-04 
1.0852870e-02 1.0885607e-02 -8.1491693e-05 
1.0738978e-02 1.0782834e-02 -1.3108163e-04 
1.0889195e-02 1.0982005e-02 -1.4869553e-04 
1.0903945e-02 1.0970585e-02 -1.0987181e-04 
1.0753580e-02 1.0833380e-02 -1.7347535e-04 
1.0791142e-02 1.0799633e-02 -6.8951333e-05 
1.0682191e-02 1.0730754e-02 -1.5463385e-04 
1.0702866e-02 1.0703970e-02 -8.6529311e-05 
1.0695313e-02 1.0760844e-02 -1.7275738e-04 
1.0732459e-02 1.0725400e-02 -6.6793313e-05 
1.0643089e-02 1.0659749e-02 -1.2503884e-04 
1.0930212e-02 1.1047273e-02 -1.6775978e-04 
1.0761145e-02 1.0830979e-02 -1.5833334e-04 
1.0788379e-02 1.0808099e-02 -8.4387648e-05 
1.0657598e-02 1.0645148e-02 -8.2732309e-05 
1.0628726e-02 1.0665074e-02 -1.5514214e-04 
1.0689312e-02 1.0754607e-02 -1.7444356e-04 
1.0727379e-02 1.0720503e-02 -6.8448608e-05 
1.0589504e-02 1.0593438e-02 -1.2489647e-04 
1.0629835e-02 1.0680727e-02 -1.7389184e-04 
1.0667534e-02 1.0644804e-02 -6.6204688e-05 
1.0696977e-02 1.0754063e-02 -1.6151233e-04 
1.0776382e-02 1.0842753e-02 -1.4922708e-04 
1.0726430e-02 1.0729200e-02 -8.1257276e-05 
1.0789772e-02 1.0832539e-02 -1.1407624e-04 
1.0574812e-02 1.0598903e-02 -1.5568736e-04 
1.0595960e-02 1.0571484e-02 -8.5856569e-05 
1.0841131e-02 1.0937458e-02 -1.6842123e-04 
1.0623640e-02 1.0674121e-02 -1.7540097e-04 
1.0662259e-02 1.0639753e-02 -6.7995148e-05 
1.0535503e-02 1.0526734e-02 -1.2477027e-04 
1.0562886e-02 1.0598873e-02 -1.7498947e-04 
1.0601209e-02 1.0562552e-02 -6.5625354e-05 
1.0520545e-02 1.0532291e-02 -1.5618447e-04 
1.0541887e-02 1.0504599e-02 -8.5563603e-05 
1.0631418e-02 1.0671169e-02 -1.5911520e-04 
1.0659119e-02 1.0648469e-02 -8.4359468e-05 
1.0481065e-02 1.0459618e-02 -1.2465946e-04 
1.0556509e-02 1.0591904e-02 -1.7631147e-04 
1.0595703e-02 1.0557299e-02 -6.7495632e-05 
1.0751646e-02 1.0827114e-02 -1.6902189e-04 
1.0494445e-02 1.0515258e-02 -1.7607013e-04 
1.0465845e-02 1.0465269e-02 -1.5667442e-04 
1.0487375e-02 1.0437223e-02 -8.5197687e-05 
1.0533451e-02 1.0478548e-02 -6.4968110e-05 
1.0646960e-02 1.0683301e-02 -1.4997645e-04 
1.0564449e-02 1.0590897e-02 -1.6236492e-04 
1.0660284e-02 1.0673892e-02 -1.1584887e-04 
1.0594520e-02 1.0566246e-02 -8.1054597e-05 
1.0426262e-02 1.0391919e-02 -1.2452631e-04 
1.0487900e-02 1.0507884e-02 -1.7723854e-04 
1.0527637e-02 1.0473086e-02 -6.7005094e-05 
1.0410726e-02 1.0397663e-02 -1.5719663e-04 
1.0432508e-02 1.0369352e-02 -8.4872197e-05 
1.0424469e-02 1.0429746e-02 -1.7720241e-04 
1.0464152e-02 1.0392780e-02 -6.4346896e-05 
1.0661812e-02 1.0716456e-02 -1.6965346e-04 
1.0370981e-02 1.0323827e-02 -1.2439530e-04 
1.0495870e-02 1.0504299e-02 -1.5980704e-04 
1.0524075e-02 1.0481982e-02 -8.4470565e-05 
1.0355172e-02 1.0329639e-02 -1.5770938e-04 
1.0377157e-02 1.0301013e-02 -8.4497908e-05 
1.0417677e-02 1.0421918e-02 -1.7812129e-04 
1.0458093e-02 1.0387094e-02 -6.6532819e-05 
1.0315326e-02 1.0255178e-02 -1.2423434e-04 
1.0352881e-02 1.0342339e-02 -1.7824036e-04 
1.0393254e-02 1.0305121e-02 -6.3688560e-05 
1.0511674e-02 1.0516832e-02 -1.5077706e-04 
1.0525036e-02 1.0508463e-02 -1.1782959e-04 
1.0425755e-02 1.0418029e-02 -1.6005049e-04 
1.0571708e-02 1.0605589e-02 -1.7027368e-04 
1.0299239e-02 1.0261107e-02 -1.5815276e-04 
1.0321429e-02 1.0232244e-02 -8.4192463e-05 
1.0454237e-02 1.0396115e-02 -8.4523119e-05 
1.0345895e-02 1.0334098e-02 -1.7896136e-04 
1.0386913e-02 1.0299208e-02 -6.6067660e-05 
1.0259188e-02 1.0186180e-02 -1.2408510e-04 
1.0279560e-02 1.0252926e-02 -1.7931488e-04 
1.0320828e-02 1.0215594e-02 -6.3044667e-05 
1.0242856e-02 1.0192231e-02 -1.5858078e-04 
1.0265218e-02 1.0163001e-02 -8.3796571e-05 
1.0354046e-02 1.0329849e-02 -1.6030595e-04 
1.0283587e-02 1.0198357e-02 -1.0074896e-04 
1.0382852e-02 1.0308398e-02 -8.4680010e-05 
1.0202654e-02 1.0116606e-02 -1.2389098e-04 
1.0481146e-02 1.0494083e-02 -1.7084194e-04 
1.0396787e-02 1.0375563e-02 -1.5136199e-04 
1.0272424e-02 1.0244279e-02 -1.7970674e-04 
1.0411281e-02 1.0365863e-02 -1.1463655e-04 
1.0314154e-02 1.0209524e-02 -6.5588712e-05 
1.0185998e-02 1.0122719e-02 -1.5896658e-04 
1.0208574e-02 1.0093259e-02 -8.3423722e-05 
1.0204705e-02 1.0161623e-02 -1.8024529e-04 
1.0246651e-02 1.0124188e-02 -6.2473453e-05 
1.0145666e-02 1.0046666e-02 -1.2373499e-04 
1.0280699e-02 1.0239728e-02 -1.6055391e-04 
1.0309825e-02 1.0218780e-02 -8.4813873e-05 
1.0197275e-02 1.0152475e-02 -1.8050043e-04 
1.0128792e-02 1.0052816e-02 -1.5938609e-04 
1.0151569e-02 1.0023092e-02 -8.3029656e-05 
1.0239672e-02 1.0117852e-02 -6.5076594e-05 
1.0390151e-02 1.0382450e-02 -1.7148060e-04 
1.0127947e-02 1.0068186e-02 -1.8129643e-04 
1.0088258e-02 9.9762063e-03 -1.2353512e-04 
1.0319552e-02 1.0260880e-02 -1.2512853e-04 
1.0308764e-02 1.0268220e-02 -1.5270835e-04 
1.0170778e-02 1.0030757e-02 -6.1747880e-05 
1.0205613e-02 1.0147598e-02 -1.6069743e-04 
1.0235050e-02 1.0127177e-02 -8.5035630e-05 
1.0071077e-02 9.9824090e-03 -1.5981666e-04 
1.0094044e-02 9.9524325e-03 -8.2628023e-05 
1.0120289e-02 1.0058521e-02 -1.8126165e-04 
1.0163484e-02 1.0024147e-02 -6.4594780e-05 
1.0030324e-02 9.9052265e-03 -1.2331894e-04 
1.0298910e-02 1.0270430e-02 -1.7198548e-04 
1.0049276e-02 9.9725267e-03 -1.8232677e-04 
1.0093087e-02 9.9351862e-03 -6.1012957e-05 
1.0012857e-02 9.9115269e-03 -1.6018613e-04 
1.0035987e-02 9.8812710e-03 -8.2250030e-05 
1.0228280e-02 1.0149015e-02 -1.2547395e-04 
1.0217558e-02 1.0156471e-02 -1.5318010e-04 
1.0127171e-02 1.0051569e-02 -1.6091880e-04 
1.0156271e-02 1.0030615e-02 -8.4917476e-05 
1.0033899e-02 9.9038994e-03 -1.1578167e-04 
9.9720396e-03 9.8338518e-03 -1.2308090e-04 
1.0041474e-02 9.9626360e-03 -1.8217028e-04 
1.0085724e-02 9.9284872e-03 -6.3851679e-05 
9.9545140e-03 9.8401187e-03 -1.6003188e-04 
9.9776052e-03 9.8100388e-03 -8.2234794e-05 
9.9701714e-03 9.8763779e-03 -1.8314987e-04 
1.0207414e-02 1.0158319e-02 -1.7245945e-04 
1.0015650e-02 9.8402258e-03 -6.0392813e-05 
9.9142287e-03 9.7633172e-03 -1.2289979e-04 
1.0045343e-02 9.9522024e-03 -1.6207548e-04 
1.0077149e-02 9.9326633e-03 -8.3347404e-05 
1.0137083e-02 1.0037534e-02 -1.2588956e-04 
1.0126451e-02 1.0045039e-02 -1.5359880e-04 
9.9561056e-03 9.8089380e-03 -1.1579223e-04 
9.8967580e-03 9.7695533e-03 -1.5982547e-04 
9.9622803e-03 9.8666027e-03 -1.8328757e-04 
9.9197216e-03 9.7394679e-03 -8.2147664e-05 
1.0008460e-02 9.8335147e-03 -6.2936881e-05 
9.8570017e-03 9.6933348e-03 -1.2262851e-04 
9.8926518e-03 9.7822761e-03 -1.8394759e-04 
9.9395728e-03 9.7471550e-03 -5.9776947e-05 
1.0115983e-02 1.0046425e-02 -1.7294912e-04 
9.9659385e-03 9.8563116e-03 -1.6360688e-04 
1.0000117e-02 9.8374169e-03 -8.1747814e-05 
9.8393615e-03 9.6995095e-03 -1.5971798e-04 
9.8622963e-03 9.6695907e-03 -8.2077597e-05 
1.0019880e-02 9.9141449e-03 -1.5297644e-04 
1.0035936e-02 9.9059073e-03 -1.1517210e-04 
9.8846499e-03 9.7726043e-03 -1.8436763e-04 
9.9325087e-03 9.7402595e-03 -6.2014231e-05 
9.8605929e-03 9.6924184e-03 -1.1550070e-04 
9.8001761e-03 9.6241049e-03 -1.2240910e-04 
9.8648127e-03 9.6557466e-03 -5.9100148e-05 
9.8164883e-03 9.6899448e-03 -1.8468447e-04 
9.7825369e-03 9.6301734e-03 -1.5953343e-04 
9.8053459e-03 9.6004177e-03 -8.1996724e-05 
9.9243699e-03 9.7439261e-03 -8.0163554e-05 
9.8880408e-03 9.7623393e-03 -1.6512541e-04 
1.0024804e-02 9.9351518e-03 -1.7344684e-04 
9.7437194e-03 9.5554860e-03 -1.2220617e-04 
9.8577989e-03 9.6487608e-03 -6.1100574e-05 
9.8084006e-03 9.6804900e-03 -1.8540041e-04 
9.9448776e-03 9.8236827e-03 -1.5459799e-04 
9.9403299e-03 9.7906590e-03 -1.1713533e-04 
9.7260615e-03 9.5614521e-03 -1.5930759e-04 
9.7463923e-03 9.5295701e-03 -8.2891325e-05 
9.7913407e-03 9.5659448e-03 -5.8316786e-05 
9.7417226e-03 9.5996056e-03 -1.8547129e-04 
9.7349565e-03 9.5427083e-03 -1.1942481e-04 
9.6877385e-03 9.4873188e-03 -1.2191192e-04 
9.8497598e-03 9.6521340e-03 -7.8731195e-05 
9.8178852e-03 9.6728923e-03 -1.5990128e-04 
9.7842431e-03 9.5589720e-03 -6.0323509e-05 
9.7335707e-03 9.5900968e-03 -1.8636965e-04 
9.6700182e-03 9.4932336e-03 -1.5903880e-04 
9.9340528e-03 9.8246811e-03 -1.7399543e-04 
9.6926428e-03 9.4636632e-03 -8.1743616e-05 
9.7118802e-03 9.5080193e-03 -1.1031499e-04 
9.8571889e-03 9.6894270e-03 -1.1711317e-04 
9.6321674e-03 9.4198808e-03 -1.2166219e-04 
9.7188121e-03 9.4778575e-03 -5.7793906e-05 
9.6682543e-03 9.5107807e-03 -1.8607016e-04 
9.8544098e-03 9.7137140e-03 -1.5497132e-04 
9.7763985e-03 9.5620761e-03 -7.7198114e-05 
9.7365007e-03 9.5798625e-03 -1.6782072e-04 
9.6144117e-03 9.4257174e-03 -1.5885783e-04 
9.6369879e-03 9.3962718e-03 -8.1634906e-05 
9.7119259e-03 9.4708009e-03 -5.9425929e-05 
9.6600689e-03 9.5014200e-03 -1.8720933e-04 
9.6311579e-03 9.4062602e-03 -1.0476731e-04 
9.5769772e-03 9.3530202e-03 -1.2142211e-04 
9.8434500e-03 9.7146193e-03 -1.7456699e-04 
9.6475640e-03 9.3912259e-03 -5.7060635e-05 
9.5960181e-03 9.4237039e-03 -1.8667048e-04 
9.7682616e-03 9.5751733e-03 -1.0875361e-04 
9.7427107e-03 9.5771654e-03 -1.5403407e-04 
9.5591946e-03 9.3587535e-03 -1.5860282e-04 
9.7042304e-03 9.4735762e-03 -7.5764896e-05 
9.5837899e-03 9.3278307e-03 -7.5761636e-05 
9.6628005e-03 9.4913775e-03 -1.6915610e-04 
9.5221065e-03 9.2866700e-03 -1.2117900e-04 
9.6406955e-03 9.3840910e-03 -5.8533591e-05 
9.5877862e-03 9.4144931e-03 -1.8798970e-04 
9.5267212e-03 9.2631588e-03 -8.1389837e-05 
9.5018782e-03 9.2869252e-03 -1.5492979e-04 
9.5774084e-03 9.3061049e-03 -5.6402347e-05 
9.5249740e-03 9.3381889e-03 -1.8723935e-04 
9.7530438e-03 9.6048824e-03 -1.7492013e-04 
9.5210085e-03 9.2891296e-03 -1.2640268e-04 
9.6331807e-03 9.3867173e-03 -7.4391726e-05 
9.5902355e-03 9.4044385e-03 -1.7043912e-04 
9.4676465e-03 9.2210118e-03 -1.2096300e-04 
9.5704803e-03 9.2990221e-03 -5.7773213e-05 
9.6741561e-03 9.4950655e-03 -1.5574911e-04 
9.6843140e-03 9.4875051e-03 -1.2825229e-04 
9.4876885e-03 9.2117982e-03 -7.5275835e-05 
9.5166573e-03 9.3290014e-03 -1.8868496e-04 
9.4569474e-03 9.2381518e-03 -1.6241606e-04 
9.6380478e-03 9.4078761e-03 -9.5522562e-05 
9.6059283e-03 9.4129127e-03 -1.5624838e-04 
9.5081450e-03 9.2224721e-03 -5.5831901e-05 
9.4552841e-03 9.2542153e-03 -1.8755146e-04 
9.4136689e-03 9.1559049e-03 -1.2065550e-04 
9.5631639e-03 9.3013141e-03 -7.3004216e-05 
9.5190294e-03 9.3192477e-03 -1.7160214e-04 
9.6625146e-03 9.4950916e-03 -1.7530919e-04 
9.4310958e-03 9.1420766e-03 -7.2700830e-05 
9.3976026e-03 9.1670798e-03 -1.6282660e-04 
9.5013864e-03 9.2152413e-03 -5.6969442e-05 
9.4468333e-03 9.2452103e-03 -1.8941051e-04 
9.3600629e-03 9.0912553e-03 -1.2036464e-04 
9.5841382e-03 9.3862806e-03 -1.5602983e-04 
9.5941527e-03 9.3787564e-03 -1.2864081e-04 
9.4400067e-03 9.1401013e-03 -5.5108412e-05 
9.3866577e-03 9.1719115e-03 -1.8797471e-04 
9.4941230e-03 9.2173042e-03 -7.1710369e-05 
9.3395412e-03 9.0965042e-03 -1.6171197e-04 
9.4359107e-03 9.2222532e-03 -1.7604038e-04 
9.5137004e-03 9.2567848e-03 -9.3822637e-05 
9.3628149e-03 9.0599312e-03 -7.2392868e-05 
9.4331950e-03 9.1329068e-03 -5.6220371e-05 
9.3781790e-03 9.1628376e-03 -1.9001451e-04 
9.3066823e-03 9.0271784e-03 -1.2006660e-04 
9.5723663e-03 9.3859965e-03 -1.7558783e-04 
9.3311192e-03 9.0592634e-03 -1.2413386e-04 
9.3728062e-03 9.0592448e-03 -5.4418462e-05 
9.4556203e-03 9.2311325e-03 -1.5575564e-04 
9.2886491e-03 9.0301838e-03 -1.5426362e-04 
9.3190558e-03 9.0907980e-03 -1.8835775e-04 
9.3108648e-03 9.0038953e-03 -8.0783393e-05 
9.4260992e-03 9.1347452e-03 -7.0410206e-05 
9.4944146e-03 9.2780916e-03 -1.5617876e-04 
9.5043359e-03 9.2706000e-03 -1.2884552e-04 
9.3800025e-03 9.1531994e-03 -1.7383140e-04 
9.3093421e-03 8.9920526e-03 -6.6695939e-05 
9.2537031e-03 8.9636678e-03 -1.1979277e-04 
9.3660373e-03 9.0519758e-03 -5.5364690e-05 
9.3105091e-03 9.0819048e-03 -1.9056500e-04 
9.2647988e-03 8.9494437e-03 -8.1568447e-05 
9.2359930e-03 8.9687221e-03 -1.5651790e-04 
9.3065295e-03 8.9795152e-03 -5.3770527e-05 
9.2524961e-03 9.0112835e-03 -1.8859771e-04 
9.4823586e-03 9.2775254e-03 -1.7588424e-04 
9.3589397e-03 9.0535032e-03 -6.9159498e-05 
9.2011001e-03 8.9006182e-03 -1.1949284e-04 
9.2995958e-03 9.0596071e-03 -1.7790178e-04 
9.2344061e-03 8.9052366e-03 -7.0402566e-05 
9.3823019e-03 9.1001503e-03 -9.5523646e-05 
9.2997076e-03 8.9722378e-03 -5.4602246e-05 
9.2579173e-03 8.9576179e-03 -1.0437298e-04 
9.1896905e-03 8.9178560e-03 -1.6288827e-04 
9.4048744e-03 9.1704000e-03 -1.5645497e-04 
9.2439214e-03 9.0023400e-03 -1.9108861e-04 
9.4146952e-03 9.1629522e-03 -1.2918617e-04 
9.2410836e-03 8.9012068e-03 -5.3219719e-05 
9.3187615e-03 9.0673277e-03 -1.5676867e-04 