# vtk DataFile Version 4.0
vtk output
ASCII
DATASET UNSTRUCTURED_GRID
POINTS 4496 float
-4.3633327e-01 9.6409470e-01 4.4200001e+01 
-4.3633258e-01 9.6409065e-01 4.4074627e+01 
-3.2152572e-01 9.1279918e-01 4.4200001e+01 
-3.8534868e-01 8.4052670e-01 4.4200001e+01 
-3.9589554e-01 8.5545403e-01 4.4010014e+01 
-3.2616228e-01 9.1667932e-01 4.4011734e+01 
-4.3633190e-01 9.6408653e-01 4.3948376e+01 
-2.1293370e-01 8.4677851e-01 4.4200001e+01 
-2.9042658e-01 7.3813015e-01 4.4200001e+01 
-2.1010752e-01 8.4669363e-01 4.4073502e+01 
-2.8908840e-01 7.3604190e-01 4.4072292e+01 
-3.9589015e-01 8.5505831e-01 4.3883316e+01 
-3.2487559e-01 9.1697580e-01 4.3885036e+01 
-2.0722924e-01 8.4660655e-01 4.3944645e+01 
-1.1981077e-01 7.7773046e-01 4.4200001e+01 
-2.8772619e-01 7.3391593e-01 4.3942276e+01 
-4.3633121e-01 9.6408242e-01 4.3821228e+01 
-1.9739023e-01 6.6468561e-01 4.4200001e+01 
-2.9444304e-01 7.8727525e-01 4.3879974e+01 
-8.7554991e-02 7.5255024e-01 4.4042213e+01 
-1.6445170e-01 6.4084798e-01 4.4041008e+01 
-3.2357255e-01 9.1726828e-01 4.3757431e+01 
-3.9587301e-01 8.5463828e-01 4.3755711e+01 
-2.0429766e-01 8.4651643e-01 4.3813354e+01 
-2.8633916e-01 7.3175091e-01 4.3809875e+01 
-2.6899619e-02 6.8901783e-01 4.4200001e+01 
-1.0567340e-01 7.7152997e-01 4.3875790e+01 
-4.3633053e-01 9.6407831e-01 4.3693161e+01 
-8.7133333e-02 5.9509218e-01 4.4200001e+01 
-1.8777622e-01 6.5475601e-01 4.3873402e+01 
-2.0131156e-01 8.4642249e-01 4.3679543e+01 
-3.2225290e-01 9.1755641e-01 4.3628902e+01 
-3.9584404e-01 8.5419410e-01 4.3627178e+01 
-1.0114321e-03 6.6670936e-01 4.3939713e+01 
-2.8492665e-01 7.2954547e-01 4.3675007e+01 
-1.0131179e-01 7.7015632e-01 4.3743176e+01 
-6.0682178e-02 5.7631296e-01 4.3938457e+01 
3.9444737e-02 6.2338209e-01 4.4053139e+01 
-1.8470748e-01 6.5131217e-01 4.3739727e+01 
-7.0938184e-03 5.4737431e-01 4.4052326e+01 
-4.3632981e-01 9.6407413e-01 4.3564159e+01 
7.6947339e-02 5.8804804e-01 4.4200001e+01 
-1.2721874e-02 6.8194175e-01 4.3817982e+01 
-7.7214435e-02 5.8474159e-01 4.3819649e+01 
4.0195532e-02 5.2425718e-01 4.4200001e+01 
-1.9826968e-01 8.4632379e-01 4.3543118e+01 
-9.6842363e-02 7.6872379e-01 4.3607994e+01 
-3.2091641e-01 9.1783977e-01 4.3499420e+01 
-3.9580306e-01 8.5372573e-01 4.3497700e+01 
-2.8348783e-01 7.2729832e-01 4.3537586e+01 
-1.8155001e-01 6.4778340e-01 4.3603539e+01 
1.5678726e-01 5.2239102e-01 4.4060219e+01 
1.0298219e-02 6.6009766e-01 4.3674484e+01 
1.3250886e-01 4.7546524e-01 4.4058990e+01 
-4.3632913e-01 9.6407002e-01 4.3434200e+01 
-5.0139543e-02 5.6696451e-01 4.3671154e+01 
1.3504514e-01 5.4209155e-01 4.3856747e+01 
1.0361936e-01 4.8715758e-01 4.3855240e+01 
2.0846681e-01 4.8028421e-01 4.4200001e+01 
1.9279444e-01 4.4799727e-01 4.4200001e+01 
-9.2261828e-02 7.6722860e-01 4.3470158e+01 
-1.4701239e-03 6.7547697e-01 4.3552124e+01 
-1.9517080e-01 8.4621930e-01 4.3403992e+01 
-3.1956279e-01 9.1811794e-01 4.3368977e+01 
-3.9574999e-01 8.5323322e-01 4.3367252e+01 
-1.7830023e-01 6.4416617e-01 4.3464752e+01 
-6.7131944e-02 5.7555372e-01 4.3547829e+01 
-2.8202194e-01 7.2500783e-01 4.3397518e+01 
-4.3632844e-01 9.6406585e-01 4.3303261e+01 
1.5138821e-01 5.3037512e-01 4.3609200e+01 
1.2119007e-01 4.7490793e-01 4.3606068e+01 
-8.7566733e-02 7.6566672e-01 4.3329563e+01 
-1.7495437e-01 6.4045686e-01 4.3323273e+01 
-3.1819177e-01 9.1839045e-01 4.3237537e+01 
-3.9568463e-01 8.5271639e-01 4.3235813e+01 
2.2269404e-02 6.5294570e-01 4.3398811e+01 
-1.9201367e-01 8.4610778e-01 4.3262066e+01 
-3.8899176e-02 5.5709696e-01 4.3393635e+01 
-2.8052819e-01 7.2267252e-01 4.3254715e+01 
3.7877345e-01 3.8273901e-01 4.4200001e+01 
-4.3632776e-01 9.6406174e-01 4.3171322e+01 
3.9241230e-01 3.7329337e-01 4.3965439e+01 
1.0283732e-02 6.6872352e-01 4.3271511e+01 
-5.6385640e-02 5.6585240e-01 4.3265472e+01 
-8.2753494e-02 7.6403379e-01 4.3186119e+01 
-4.0345609e-01 8.6371827e-01 4.3104889e+01 
-3.1680310e-01 9.1865683e-01 4.3105087e+01 
-1.7150842e-01 6.3665158e-01 4.3179005e+01 
-1.8879703e-01 8.4598809e-01 4.3117241e+01 
-2.7900568e-01 7.2029078e-01 4.3109074e+01 
4.0610775e-01 3.6380205e-01 4.3729839e+01 
1.6776134e-01 5.1882964e-01 4.3331150e+01 
-4.3632707e-01 9.6405768e-01 4.3038357e+01 
1.4031014e-01 4.6124566e-01 4.3307755e+01 
3.4952711e-02 6.4519531e-01 4.3111935e+01 
-7.7818394e-02 7.6232505e-01 4.3039719e+01 
-3.1539652e-01 9.1891652e-01 4.2971603e+01 
-3.9551663e-01 8.5160977e-01 4.2969879e+01 
-2.6899155e-02 5.4666573e-01 4.3105160e+01 
-1.6795819e-01 6.3274628e-01 4.3031849e+01 
-1.8551964e-01 8.4585863e-01 4.2969406e+01 
4.1985780e-01 3.5425979e-01 4.3493168e+01 
-2.7745360e-01 7.1786088e-01 4.2960495e+01 
-4.3632638e-01 9.6405357e-01 4.2904346e+01 
2.2723136e-02 6.6139150e-01 4.2979332e+01 
-4.4916678e-02 5.5559248e-01 4.2971806e+01 
-3.1397179e-01 9.1916907e-01 4.2837063e+01 
-3.9541367e-01 8.5101974e-01 4.2835335e+01 
-7.2757579e-02 7.6053542e-01 4.2890255e+01 
-1.6429928e-01 6.2873662e-01 4.2881699e+01 
1.8463810e-01 5.0694346e-01 4.3035332e+01 
-1.8218029e-01 8.4571803e-01 4.2818455e+01 
1.5503895e-01 4.5003417e-01 4.3027725e+01 
-2.7587104e-01 7.1538109e-01 4.2808868e+01 
4.3366045e-01 3.4466109e-01 4.3255390e+01 
-4.3632573e-01 9.6404958e-01 4.2769268e+01 
-3.8429454e-01 8.3484912e-01 4.2710606e+01 
-3.1252861e-01 9.1941386e-01 4.2701439e+01 
4.8404284e-02 6.3678014e-01 4.2813030e+01 
-1.4070326e-02 5.3562075e-01 4.2804932e+01 
-6.7567028e-02 7.5865942e-01 4.2737610e+01 
-1.6052702e-01 6.2461799e-01 4.2728443e+01 
-1.7877772e-01 8.4556442e-01 4.2664265e+01 
-4.3632504e-01 9.6404558e-01 4.2633099e+01 
-2.7425703e-01 7.1284944e-01 4.2654083e+01 
4.4751364e-01 3.3500037e-01 4.3016472e+01 
3.5901129e-02 6.5341437e-01 4.2674721e+01 
-3.7959340e-01 8.2794034e-01 4.2568317e+01 
-3.1106678e-01 9.1965032e-01 4.2564713e+01 
-3.2659348e-02 5.4472327e-01 4.2665997e+01 
2.0396979e-01 4.9291667e-01 4.2740131e+01 
-6.2242586e-02 7.5669110e-01 4.2581669e+01 
1.7765003e-01 4.3475360e-01 4.2732578e+01 
-1.5663649e-01 6.2038553e-01 4.2571964e+01 
-4.3632439e-01 9.6404165e-01 4.2495808e+01 
-1.7531081e-01 8.4539592e-01 4.2506718e+01 
-2.7261066e-01 7.1026409e-01 4.2496017e+01 
-3.0958602e-01 9.1987789e-01 4.2426853e+01 
-3.7859210e-01 8.2613736e-01 4.2421188e+01 
4.6141517e-01 3.2527190e-01 4.2776375e+01 
6.2686495e-02 6.2762415e-01 4.2501175e+01 
-3.3570320e-04 5.2390522e-01 4.2492062e+01 
-5.6779940e-02 7.5462401e-01 4.2422298e+01 
-4.3632373e-01 9.6403772e-01 4.2357380e+01 
-1.5262254e-01 6.1603409e-01 4.2412144e+01 
-1.7177837e-01 8.4521037e-01 4.2345684e+01 
-2.7093092e-01 7.0762289e-01 4.2334549e+01 
-3.0808610e-01 9.2009580e-01 4.2287842e+01 
-3.8275370e-01 8.3137155e-01 4.2275047e+01 
4.9876589e-02 6.4471585e-01 4.2356720e+01 
-1.9539909e-02 5.3318781e-01 4.2347118e+01 
-4.3632311e-01 9.6403396e-01 4.2217781e+01 
2.1959943e-01 4.8236796e-01 4.2385345e+01 
-5.1174615e-02 7.5245124e-01 4.2259373e+01 
1.9034323e-01 4.2346162e-01 4.2378918e+01 
-1.4847966e-01 6.1155808e-01 4.2248856e+01 
4.7536272e-01 3.1546980e-01 4.2535065e+01 
-1.6817927e-01 8.4500539e-01 4.2181026e+01 
-2.6921678e-01 7.0492369e-01 4.2169544e+01 
-3.0656675e-01 9.2030340e-01 4.2147648e+01 
-3.9470181e-01 8.4769493e-01 4.2145920e+01 
7.7868804e-02 6.1763972e-01 4.2175373e+01 
-4.3632248e-01 9.6403021e-01 4.2076988e+01 
1.4390758e-02 5.1145434e-01 4.2165581e+01 
-4.5421973e-02 7.5016522e-01 4.2092751e+01 
-1.4420210e-01 6.0695171e-01 4.2081959e+01 
-3.0502778e-01 9.2049998e-01 4.2006248e+01 
-4.0175444e-01 8.5747409e-01 4.2004128e+01 
-1.6451253e-01 8.4477836e-01 4.2012604e+01 
4.8935395e-01 3.0558801e-01 4.2292507e+01 
-2.6746723e-01 7.0216429e-01 4.2000870e+01 
6.4714879e-02 6.3520777e-01 4.2024277e+01 
-4.3632188e-01 9.6402657e-01 4.1934975e+01 
-5.4755262e-03 5.2092212e-01 4.2014156e+01 
-2.3078828e-01 8.1064087e-01 4.1931458e+01 
2.3550548e-01 4.7116494e-01 4.2073269e+01 
2.0610523e-01 4.1123796e-01 4.2066772e+01 
-3.9517213e-02 7.4775779e-01 4.1922287e+01 
-1.3978374e-01 6.0220873e-01 4.1911320e+01 
-3.0346894e-01 9.2068475e-01 4.1863613e+01 
-3.9432141e-01 8.4618556e-01 4.1861881e+01 
-1.6077711e-01 8.4452641e-01 4.1840263e+01 
-2.6568118e-01 6.9934219e-01 4.1828377e+01 
-4.3632129e-01 9.6402299e-01 4.1791718e+01 
5.0338638e-01 2.9562023e-01 4.2048656e+01 
9.4028555e-02 6.0672593e-01 4.1834507e+01 
3.0205652e-02 4.9819478e-01 4.1824417e+01 
-3.8116732e-01 8.2744831e-01 4.1725647e+01 
-3.0189002e-01 9.2085695e-01 4.1719719e+01 
-3.3455357e-02 7.4522001e-01 4.1747829e+01 
-1.3521814e-01 5.9732240e-01 4.1736786e+01 
-4.3632072e-01 9.6401960e-01 4.1647179e+01 
-1.5697217e-01 8.4424627e-01 4.1663853e+01 
-2.6385748e-01 6.9645494e-01 4.1651920e+01 
8.0488607e-02 6.2478805e-01 4.1676235e+01 
2.6870471e-01 4.4547972e-01 4.1752304e+01 
9.6269641e-03 5.0785345e-01 4.1665993e+01 
2.4764967e-01 3.8646612e-01 4.1743168e+01 
-3.0029076e-01 9.2101562e-01 4.1574532e+01 
-3.9388368e-01 8.4456980e-01 4.1572796e+01 
5.1745731e-01 2.8556010e-01 4.1803486e+01 
-2.7231261e-02 7.4254233e-01 4.1569210e+01 
-1.3049847e-01 5.9228569e-01 4.1558201e+01 
-4.3632016e-01 9.6401632e-01 4.1501339e+01 
-1.5309690e-01 8.4393430e-01 4.1483204e+01 
-2.6199502e-01 6.9349992e-01 4.1471333e+01 
-2.9867104e-01 9.2115986e-01 4.1428024e+01 
-3.9364263e-01 8.4372103e-01 4.1426289e+01 
1.1125199e-01 5.9476525e-01 4.1477348e+01 
4.7217656e-02 4.8404291e-01 4.1467384e+01 
-4.3631962e-01 9.6401310e-01 4.1354160e+01 
-2.0839609e-02 7.3971421e-01 4.1386261e+01 
-1.2561750e-01 5.8709091e-01 4.1375404e+01 
5.3156406e-01 2.7540097e-01 4.1556946e+01 
-1.4915068e-01 8.4358656e-01 4.1298138e+01 
-2.9703063e-01 9.2128879e-01 4.1280167e+01 
-3.9338648e-01 8.4284443e-01 4.1278431e+01 
-2.6009262e-01 6.9047421e-01 4.1286449e+01 
2.9365057e-01 4.2687622e-01 4.1391586e+01 
9.7278498e-02 6.1333776e-01 4.1311302e+01 
2.7470219e-01 3.6807936e-01 4.1382729e+01 
2.5872495e-02 4.9389899e-01 4.1301384e+01 
-4.3631911e-01 9.6401012e-01 4.1205620e+01 
-1.4274905e-02 7.3672432e-01 4.1198803e+01 
-1.2056758e-01 5.8173001e-01 4.1188221e+01 
-2.9536936e-01 9.2140132e-01 4.1130928e+01 
[...]
POINT_DATA 4496
FIELD FieldData 5
DISPLACEMENT 3 4496  float
2.8508911e-01 2.6061696e-01 -3.1227297e-03 
2.8350812e-01 2.5902140e-01 -3.1025608e-03 
2.8513330e-01 2.6072222e-01 -3.9196904e-03 
2.8521362e-01 2.6067191e-01 -2.1951876e-03 
2.8280318e-01 2.5824356e-01 -2.2213636e-03 
2.8275555e-01 2.5832182e-01 -3.8802724e-03 
2.8191611e-01 2.5741470e-01 -3.0822456e-03 
2.8519332e-01 2.6082322e-01 -4.4509964e-03 
2.8531262e-01 2.6076382e-01 -2.0914236e-03 
2.8359801e-01 2.5921580e-01 -4.4652838e-03 
2.8370425e-01 2.5913987e-01 -2.0612639e-03 
2.8120595e-01 2.5663123e-01 -2.1960631e-03 
2.8115752e-01 2.5671053e-01 -3.8799371e-03 
2.8197297e-01 2.5757843e-01 -4.4798059e-03 
2.8525776e-01 2.6091087e-01 -4.7485619e-03 
2.8206682e-01 2.5748661e-01 -2.0305845e-03 
2.8031284e-01 2.5579667e-01 -3.0617733e-03 
2.8538167e-01 2.6085177e-01 -2.3319665e-03 
2.8122619e-01 2.5668347e-01 -2.6142327e-03 
2.8329167e-01 2.5893322e-01 -4.8102359e-03 
2.8339887e-01 2.5885922e-01 -2.4191346e-03 
2.7954811e-01 2.5508782e-01 -3.8795446e-03 
2.7959731e-01 2.5500745e-01 -2.1704901e-03 
2.8031728e-01 2.5591013e-01 -4.4945516e-03 
2.8039935e-01 2.5580305e-01 -1.9993468e-03 
2.8534272e-01 2.6099998e-01 -4.7934228e-03 
2.8117472e-01 2.5679761e-01 -4.7961003e-03 
2.7869815e-01 2.5416705e-01 -3.0411182e-03 
2.8544536e-01 2.6095459e-01 -2.8388104e-03 
2.8127262e-01 2.5670445e-01 -2.2746853e-03 
2.7862987e-01 2.5420988e-01 -4.5094974e-03 
2.7792713e-01 2.5345340e-01 -3.8791541e-03 
2.7797717e-01 2.5337201e-01 -2.1446506e-03 
2.8208145e-01 2.5771177e-01 -4.7947755e-03 
2.7870086e-01 2.5408822e-01 -1.9675728e-03 
2.7950355e-01 2.5511381e-01 -4.8123510e-03 
2.8216448e-01 2.5765064e-01 -2.8919422e-03 
2.8355369e-01 2.5919458e-01 -4.7727656e-03 
2.7959022e-01 2.5500625e-01 -2.2482430e-03 
2.8362635e-01 2.5914946e-01 -3.2186697e-03 
2.7707171e-01 2.5252575e-01 -3.0203310e-03 
2.8543961e-01 2.6109982e-01 -4.8204530e-03 
2.8053144e-01 2.5615087e-01 -4.8210784e-03 
2.8065872e-01 2.5612330e-01 -2.7713934e-03 
2.8550902e-01 2.6107261e-01 -3.5453527e-03 
2.7690965e-01 2.5247657e-01 -4.5246221e-03 
2.7780014e-01 2.5339749e-01 -4.8287669e-03 
2.7629435e-01 2.5180715e-01 -3.8787178e-03 
2.7634516e-01 2.5172472e-01 -2.1184657e-03 
2.7697033e-01 2.5234106e-01 -1.9352145e-03 
2.7787632e-01 2.5327626e-01 -2.2214509e-03 
2.8373879e-01 2.5939637e-01 -4.9709980e-03 
2.7874276e-01 2.5434655e-01 -4.8108669e-03 
2.8377411e-01 2.5936314e-01 -4.0675681e-03 
2.7543339e-01 2.5087237e-01 -2.9993141e-03 
2.7880234e-01 2.5425866e-01 -2.8633438e-03 
2.8115392e-01 2.5678566e-01 -4.9143927e-03 
2.8119457e-01 2.5674331e-01 -3.8188586e-03 
2.8554142e-01 2.6122466e-01 -5.1103793e-03 
2.8557631e-01 2.6121348e-01 -4.5019127e-03 
2.7606341e-01 2.5164762e-01 -4.8453417e-03 
2.7718487e-01 2.5277779e-01 -4.8381416e-03 
2.7515554e-01 2.5070915e-01 -4.5399298e-03 
2.7464950e-01 2.5014880e-01 -3.8782558e-03 
2.7470118e-01 2.5006536e-01 -2.0920371e-03 
2.7612981e-01 2.5151345e-01 -2.1943909e-03 
2.7723962e-01 2.5267366e-01 -2.7384097e-03 
2.7520660e-01 2.5056052e-01 -1.9023051e-03 
2.7378288e-01 2.4920690e-01 -2.9781633e-03 
2.7804285e-01 2.5364998e-01 -4.9319449e-03 
2.7806336e-01 2.5358817e-01 -3.8449292e-03 
2.7429220e-01 2.4986306e-01 -4.8619909e-03 
2.7434954e-01 2.4971668e-01 -2.1669380e-03 
2.7299240e-01 2.4847820e-01 -3.8777122e-03 
2.7304494e-01 2.4839377e-01 -2.0652884e-03 
2.7527320e-01 2.5084943e-01 -4.8266426e-03 
2.7336636e-01 2.4890643e-01 -4.5553558e-03 
2.7531213e-01 2.5073779e-01 -2.8354616e-03 
2.7340859e-01 2.4874546e-01 -1.8688162e-03 
2.8562948e-01 2.6138282e-01 -6.0198107e-03 
2.7212000e-01 2.4752897e-01 -2.9568935e-03 
2.8267983e-01 2.5840953e-01 -6.0341824e-03 
2.7365297e-01 2.4921799e-01 -4.8553757e-03 
2.7368852e-01 2.4909121e-01 -2.7057552e-03 
2.7248538e-01 2.4804263e-01 -4.8787198e-03 
2.7138406e-01 2.4672116e-01 -2.0862042e-03 
2.7132273e-01 2.4679495e-01 -3.8772274e-03 
2.7253452e-01 2.4788493e-01 -2.1392356e-03 
2.7154091e-01 2.4706732e-01 -4.5708613e-03 
2.7157524e-01 2.4689485e-01 -1.8346229e-03 
2.7971697e-01 2.5542292e-01 -6.0484819e-03 
2.7454728e-01 2.5012657e-01 -4.9471548e-03 
2.7044448e-01 2.4583845e-01 -2.9354845e-03 
2.7431399e-01 2.4980956e-01 -3.8648851e-03 
2.7166373e-01 2.4721141e-01 -4.8418767e-03 
2.7064165e-01 2.4618514e-01 -4.8954580e-03 
2.6964054e-01 2.4509914e-01 -3.8765415e-03 
2.6969469e-01 2.4501266e-01 -2.0110202e-03 
2.7168497e-01 2.4707925e-01 -2.8084472e-03 
2.7068335e-01 2.4601693e-01 -2.1110983e-03 
2.6967797e-01 2.4519043e-01 -4.5864498e-03 
2.7674064e-01 2.5242248e-01 -6.0625724e-03 
2.6970515e-01 2.4500732e-01 -1.7999470e-03 
2.6875630e-01 2.4413505e-01 -2.9137379e-03 
2.6997682e-01 2.4551299e-01 -4.8718695e-03 
2.6999635e-01 2.4536702e-01 -2.6735943e-03 
2.6794529e-01 2.4339031e-01 -3.8758803e-03 
2.6800045e-01 2.4330299e-01 -1.9835564e-03 
2.6875982e-01 2.4428931e-01 -4.9121822e-03 
2.6879510e-01 2.4411160e-01 -2.0827886e-03 
2.7082869e-01 2.4637848e-01 -4.9614408e-03 
2.6777613e-01 2.4327450e-01 -4.6020355e-03 
2.7079380e-01 2.4626063e-01 -3.8635849e-03 
2.6779735e-01 2.4308200e-01 -1.7646514e-03 
2.7375075e-01 2.4940863e-01 -6.0765650e-03 
2.6705498e-01 2.4241890e-01 -2.8919401e-03 
2.6644525e-01 2.4172945e-01 -1.8987032e-03 
2.6623705e-01 2.4166867e-01 -3.8750095e-03 
2.6790455e-01 2.4342294e-01 -4.8562600e-03 
2.6791146e-01 2.4327396e-01 -2.7825728e-03 
2.6683843e-01 2.4235395e-01 -4.9288701e-03 
2.6686814e-01 2.4216761e-01 -2.0539709e-03 
2.6583442e-01 2.4131866e-01 -4.6176501e-03 
2.6534051e-01 2.4068952e-01 -2.8698661e-03 
2.6585016e-01 2.4111700e-01 -1.7285817e-03 
2.7074701e-01 2.4638090e-01 -6.0900608e-03 
2.6614630e-01 2.4165300e-01 -4.8873201e-03 
2.6466048e-01 2.3992719e-01 -1.8476995e-03 
2.6451549e-01 2.3993362e-01 -3.8739187e-03 
2.6615325e-01 2.4149166e-01 -2.6420932e-03 
2.6712126e-01 2.4264252e-01 -4.9795914e-03 
2.6487643e-01 2.4037758e-01 -4.9455743e-03 
2.6708779e-01 2.4252848e-01 -3.9078593e-03 
2.6490146e-01 2.4018373e-01 -2.0251679e-03 
2.6361263e-01 2.3894669e-01 -2.8473833e-03 
2.6385090e-01 2.3932090e-01 -4.6333876e-03 
2.6386249e-01 2.3911175e-01 -1.6920153e-03 
2.6278013e-01 2.3818509e-01 -3.8728516e-03 
2.6281050e-01 2.3806095e-01 -1.8143818e-03 
2.6772988e-01 2.4334022e-01 -6.1030686e-03 
2.6398519e-01 2.3947364e-01 -4.8693912e-03 
2.6398146e-01 2.3931192e-01 -2.7579127e-03 
2.6287207e-01 2.3835891e-01 -4.9618743e-03 
2.6187092e-01 2.3719050e-01 -2.8249144e-03 
2.6289338e-01 2.3815855e-01 -1.9957772e-03 
2.6182446e-01 2.3728023e-01 -4.6489001e-03 
2.6183289e-01 2.3706453e-01 -1.6547632e-03 
2.6103115e-01 2.3642306e-01 -3.8715703e-03 
2.6096699e-01 2.3620352e-01 -1.8054775e-03 
2.6215047e-01 2.3762704e-01 -4.9011493e-03 
2.6214898e-01 2.3745491e-01 -2.6113787e-03 
2.6011544e-01 2.3542082e-01 -2.8022500e-03 
2.6266241e-01 2.3814920e-01 -4.9857008e-03 
2.6082402e-01 2.3629659e-01 -4.9779280e-03 
2.6264375e-01 2.3804726e-01 -3.8688057e-03 
2.6084274e-01 2.3609096e-01 -1.9661917e-03 
2.6469785e-01 2.4028474e-01 -6.1153588e-03 
2.5975353e-01 2.3519507e-01 -4.6642856e-03 
2.5975978e-01 2.3497395e-01 -1.6168662e-03 
2.5926831e-01 2.3464745e-01 -3.8700516e-03 
2.5932765e-01 2.3455553e-01 -1.8415044e-03 
2.5989434e-01 2.3535274e-01 -4.8810104e-03 
2.5834596e-01 2.3363709e-01 -2.7795164e-03 
2.5988394e-01 2.3518266e-01 -2.7350357e-03 
2.5873068e-01 2.3418909e-01 -4.9937177e-03 
2.5874814e-01 2.3397928e-01 -1.9360615e-03 
2.5749084e-01 2.3285721e-01 -3.8688753e-03 
2.5753611e-01 2.3275265e-01 -1.8545485e-03 
2.5763640e-01 2.3306388e-01 -4.6794121e-03 
2.6165196e-01 2.3721561e-01 -6.1270413e-03 
2.5764209e-01 2.3283887e-01 -1.5780496e-03 
2.5797778e-01 2.3342451e-01 -4.9131326e-03 
2.5656161e-01 2.3183897e-01 -2.7567886e-03 
2.5797194e-01 2.3324601e-01 -2.5818499e-03 
2.5665697e-01 2.3198266e-01 -3.4005607e-03 
2.5874576e-01 2.3420395e-01 -4.9937698e-03 
2.5872698e-01 2.3410143e-01 -3.8636150e-03 
2.5659052e-01 2.3203506e-01 -5.0092167e-03 
2.5660774e-01 2.3182230e-01 -1.9055972e-03 
2.5569886e-01 2.3105286e-01 -3.8673833e-03 
2.5575984e-01 2.3095915e-01 -1.7831431e-03 
2.5547150e-01 2.3088531e-01 -4.6946201e-03 
2.5547773e-01 2.3065685e-01 -1.5383657e-03 
2.5476262e-01 2.3002616e-01 -2.7335160e-03 
2.5859249e-01 2.3413396e-01 -6.1381124e-03 
2.5561950e-01 2.3104830e-01 -4.8906789e-03 
2.5560704e-01 2.3087490e-01 -2.7139140e-03 
2.5406724e-01 2.2924839e-01 -1.6901009e-03 
2.5389218e-01 2.2923397e-01 -3.8653791e-03 
2.5440142e-01 2.2983198e-01 -5.0243661e-03 
2.5441971e-01 2.2961766e-01 -1.8746263e-03 
2.5294873e-01 2.2819862e-01 -2.7097331e-03 
2.5325707e-01 2.2865701e-01 -4.7094412e-03 
2.5326490e-01 2.2842701e-01 -1.4984008e-03 
2.5361496e-01 2.2903247e-01 -4.9227546e-03 
2.5473478e-01 2.3016801e-01 -5.0346535e-03 
2.5360918e-01 2.2885247e-01 -2.5534760e-03 
2.5468102e-01 2.3003927e-01 -4.0224120e-03 
2.5207016e-01 2.2740023e-01 -3.8632990e-03 
2.5213319e-01 2.2730464e-01 -1.7231033e-03 
2.5552005e-01 2.3104091e-01 -6.1482824e-03 
2.5216198e-01 2.2757880e-01 -5.0388686e-03 
2.5218290e-01 2.2736448e-01 -1.8439739e-03 
2.5111991e-01 2.2635697e-01 -2.6859285e-03 
2.5099111e-01 2.2637784e-01 -4.7236076e-03 
2.5100222e-01 2.2614779e-01 -1.4578449e-03 
2.5023335e-01 2.2555184e-01 -3.8608329e-03 
2.5029719e-01 2.2545597e-01 -1.6929626e-03 
2.5114682e-01 2.2654682e-01 -4.8974506e-03 
2.5113773e-01 2.2637600e-01 -2.6947125e-03 
2.4927568e-01 2.2450069e-01 -2.6623700e-03 
2.4987020e-01 2.2527401e-01 -5.0525507e-03 
2.4989511e-01 2.2506094e-01 -1.8123523e-03 
2.5243193e-01 2.2793233e-01 -6.1569065e-03 
2.4867210e-01 2.2404605e-01 -4.7374242e-03 
2.4838096e-01 2.2368890e-01 -3.8585588e-03 
2.4844515e-01 2.2359176e-01 -1.6622252e-03 
2.4868768e-01 2.2381710e-01 -1.4155421e-03 
2.5022399e-01 2.2562979e-01 -5.0550080e-03 
2.4904788e-01 2.2443713e-01 -4.9291258e-03 
2.5017306e-01 2.2550686e-01 -4.0740985e-03 
2.4904846e-01 2.2426221e-01 -2.5265545e-03 
2.4741572e-01 2.2262837e-01 -2.6383095e-03 
2.4752457e-01 2.2291514e-01 -5.0660195e-03 
2.4755417e-01 2.2270502e-01 -1.7804175e-03 
2.4651238e-01 2.2180937e-01 -3.8560745e-03 
2.4657811e-01 2.2171186e-01 -1.6315086e-03 
2.4629763e-01 2.2165903e-01 -4.7508064e-03 
2.4631953e-01 2.2143318e-01 -1.3732308e-03 
2.4933030e-01 2.2481170e-01 -6.1646379e-03 
2.4553965e-01 2.2074060e-01 -2.6143617e-03 
2.4646191e-01 2.2183436e-01 -4.9013947e-03 
2.4646106e-01 2.2167155e-01 -2.6778593e-03 
2.4462801e-01 2.1991509e-01 -3.8534238e-03 
2.4469413e-01 2.1981621e-01 -1.6003947e-03 
2.4512193e-01 2.2050034e-01 -5.0779800e-03 
2.4515907e-01 2.2029503e-01 -1.7486239e-03 
2.4364750e-01 2.1883714e-01 -2.5895655e-03 
2.4386616e-01 2.1921538e-01 -4.7633690e-03 
2.4389522e-01 2.1899438e-01 -1.3295922e-03 
2.4549781e-01 2.2087775e-01 -5.0768652e-03 
2.4545561e-01 2.2076663e-01 -4.1328566e-03 
2.4403425e-01 2.1939372e-01 -4.9008233e-03 
2.4621521e-01 2.2167902e-01 -6.1714123e-03 
2.4272734e-01 2.1800439e-01 -3.8496789e-03 
2.4279469e-01 2.1790567e-01 -1.5695281e-03 
2.4404015e-01 2.1923831e-01 -2.6703270e-03 
2.4266179e-01 2.1802798e-01 -5.0894329e-03 
2.4270667e-01 2.1782899e-01 -1.7160573e-03 
2.4173915e-01 2.1691874e-01 -2.5652333e-03 
2.4137463e-01 2.1671298e-01 -4.7753705e-03 
2.4141410e-01 2.1649870e-01 -1.2852848e-03 
2.4081060e-01 2.1607947e-01 -3.8460677e-03 
2.4087813e-01 2.1597911e-01 -1.5379516e-03 
2.4154793e-01 2.1689479e-01 -4.8999670e-03 
2.4065769e-01 2.1581888e-01 -2.3861146e-03 
2.4156223e-01 2.1674839e-01 -2.6638925e-03 
2.3981439e-01 2.1498424e-01 -2.5399346e-03 
2.4308349e-01 2.1852955e-01 -6.1762189e-03 
2.4161573e-01 2.1697341e-01 -5.0489712e-03 
2.4014060e-01 2.1549608e-01 -5.0983643e-03 
2.4161750e-01 2.1689808e-01 -3.9744806e-03 
2.4019614e-01 2.1530573e-01 -1.6832663e-03 
2.3887679e-01 2.1413714e-01 -3.8415606e-03 
2.3894541e-01 2.1403705e-01 -1.5060595e-03 
2.3882288e-01 2.1415086e-01 -4.7849100e-03 
2.3887236e-01 2.1394466e-01 -1.2415166e-03 
2.3787294e-01 2.1303414e-01 -2.5153682e-03 
2.3900020e-01 2.1433558e-01 -4.8980867e-03 
2.3902425e-01 2.1420009e-01 -2.6578640e-03 
2.3755740e-01 2.1290281e-01 -5.1071788e-03 
2.3692662e-01 2.1217914e-01 -3.8374937e-03 
2.3699576e-01 2.1207836e-01 -1.4738574e-03 
2.3762436e-01 2.1272278e-01 -1.6497415e-03 
2.3993789e-01 2.1536970e-01 -6.1807339e-03 
2.3620658e-01 2.1152543e-01 -4.7954665e-03 
2.3591413e-01 2.1106687e-01 -2.4901314e-03 
2.3817214e-01 2.1346858e-01 -4.3934206e-03 
2.3812619e-01 2.1348119e-01 -5.2167578e-03 
2.3626924e-01 2.1133012e-01 -1.1947837e-03 
2.3638873e-01 2.1171382e-01 -4.8944247e-03 
2.3642381e-01 2.1158999e-01 -2.6529862e-03 
2.3495831e-01 2.1020430e-01 -3.8332972e-03 
2.3502825e-01 2.1010283e-01 -1.4414313e-03 
2.3490852e-01 2.1024498e-01 -5.1145460e-03 
2.3498967e-01 2.1007740e-01 -1.6162547e-03 
2.3393700e-01 2.0908223e-01 -2.4646039e-03 
2.3677860e-01 2.1219687e-01 -6.1819544e-03 
2.3352277e-01 2.0883395e-01 -4.8048990e-03 
2.3360126e-01 2.0865157e-01 -1.1470070e-03 
2.3297355e-01 2.0821422e-01 -3.8268168e-03 
2.3304386e-01 2.0811141e-01 -1.4096117e-03 
2.3500623e-01 2.1029115e-01 -4.3875868e-03 
2.3496149e-01 2.1030486e-01 -5.2171289e-03 
2.3366895e-01 2.0898500e-01 -4.8893960e-03 
2.3369440e-01 2.0885175e-01 -2.6320361e-03 
2.3243101e-01 2.0759079e-01 -2.7201234e-03 
2.3194550e-01 2.0708466e-01 -2.4382460e-03 
2.3221456e-01 2.0754386e-01 -5.1210248e-03 
2.3232560e-01 2.0740330e-01 -1.5637296e-03 
2.3098877e-01 2.0622310e-01 -3.8017731e-03 
2.3106003e-01 2.0612228e-01 -1.3843944e-03 
2.3081841e-01 2.0612374e-01 -4.8104879e-03 
2.3360547e-01 2.0901242e-01 -6.1815404e-03 
2.3094134e-01 2.0598374e-01 -1.1014364e-03 
2.2996950e-01 2.0510386e-01 -2.4134465e-03 
2.3090369e-01 2.0621304e-01 -4.8908740e-03 
2.3100483e-01 2.0615032e-01 -2.5452857e-03 
2.3183511e-01 2.0711134e-01 -4.3864758e-03 
2.3179166e-01 2.0712598e-01 -5.2177464e-03 
2.2979428e-01 2.0494698e-01 -2.6869306e-03 
2.2901990e-01 2.0424992e-01 -3.7764066e-03 
2.2953339e-01 2.0485717e-01 -5.1269862e-03 
2.2909027e-01 2.0414799e-01 -1.3590981e-03 
2.2968778e-01 2.0475779e-01 -1.5024975e-03 
2.2800881e-01 2.0313856e-01 -2.3873860e-03 
2.2816382e-01 2.0346519e-01 -4.8146821e-03 
2.2832595e-01 2.0336273e-01 -1.0572119e-03 
2.3043354e-01 2.0583160e-01 -6.1792587e-03 
2.2824696e-01 2.0355260e-01 -4.8973844e-03 
2.2839020e-01 2.0352559e-01 -2.4557137e-03 
2.2706467e-01 2.0229068e-01 -3.7514823e-03 
2.2713563e-01 2.0219041e-01 -1.3343070e-03 
2.2854833e-01 2.0386381e-01 -5.0338390e-03 
2.2861496e-01 2.0385285e-01 -3.9135716e-03 
2.2690101e-01 2.0222223e-01 -5.1316191e-03 
2.2709274e-01 2.0215589e-01 -1.4427067e-03 
2.2653717e-01 2.0168404e-01 -2.6432006e-03 
2.2606263e-01 2.0119001e-01 -2.3623556e-03 
2.2575353e-01 2.0078604e-01 -1.0131327e-03 
2.2555572e-01 2.0085518e-01 -4.8173280e-03 
2.2512522e-01 2.0034814e-01 -3.7254989e-03 
2.2519615e-01 2.0024931e-01 -1.3101744e-03 
2.2581717e-01 2.0094550e-01 -2.3685182e-03 
2.2563677e-01 2.0094101e-01 -4.9042054e-03 
2.2726946e-01 2.0266296e-01 -6.1764224e-03 
2.2413097e-01 1.9925705e-01 -2.3381687e-03 
2.2453991e-01 1.9959833e-01 -1.3845236e-03 
2.2431430e-01 1.9963549e-01 -5.1351083e-03 
2.2546980e-01 2.0079567e-01 -5.2168281e-03 
2.2525293e-01 2.0049201e-01 -3.9697788e-03 
2.2320002e-01 1.9842173e-01 -3.6996540e-03 
2.2323284e-01 1.9828644e-01 -1.3060182e-03 
2.2322245e-01 1.9825147e-01 -9.6775108e-04 
2.2299418e-01 1.9829395e-01 -4.8208605e-03 
2.2246115e-01 1.9761056e-01 -2.6670625e-03 
2.2221319e-01 1.9733806e-01 -2.3126497e-03 
2.2328441e-01 1.9840705e-01 -2.2847028e-03 
2.2277088e-01 1.9807047e-01 -4.8441635e-03 
2.2202651e-01 1.9708349e-01 -1.3296222e-03 
2.2177362e-01 1.9709495e-01 -5.1369602e-03 
2.2128782e-01 1.9650835e-01 -3.6726745e-03 
2.2411607e-01 1.9950889e-01 -6.1727325e-03 
2.2135815e-01 1.9641072e-01 -1.2612706e-03 
2.2105753e-01 1.9619937e-01 -2.5393160e-03 
2.2236985e-01 1.9760871e-01 -3.9516697e-03 
2.2030950e-01 1.9543517e-01 -2.2881902e-03 
2.2072941e-01 1.9576009e-01 -9.2795299e-04 
2.2047676e-01 1.9577742e-01 -4.8200209e-03 
2.2232050e-01 1.9764735e-01 -5.2129398e-03 
2.2079258e-01 1.9591300e-01 -2.2017425e-03 
2.2055396e-01 1.9585969e-01 -4.9132160e-03 
2.1939002e-01 1.9461145e-01 -3.6469437e-03 
2.1946062e-01 1.9451445e-01 -1.2372648e-03 
2.1955372e-01 1.9461109e-01 -1.2741004e-03 
2.1927674e-01 1.9460031e-01 -5.1366747e-03 
2.1870753e-01 1.9382960e-01 -2.1967220e-03 
2.1841878e-01 1.9354659e-01 -2.2638184e-03 
2.2096750e-01 1.9636177e-01 -6.1658323e-03 
2.1827674e-01 1.9330943e-01 -8.8502752e-04 
2.1800178e-01 1.9330631e-01 -4.8197089e-03 
2.1949904e-01 1.9471499e-01 -3.5807882e-03 
2.1927786e-01 1.9458508e-01 -4.9002208e-03 
2.1750495e-01 1.9272901e-01 -3.6202450e-03 
2.1833946e-01 1.9345772e-01 -2.1217654e-03 
2.1738689e-01 1.9243585e-01 -1.1010882e-03 
2.1807742e-01 1.9338736e-01 -4.9178931e-03 
2.1654059e-01 1.9167145e-01 -2.2404355e-03 
2.1711834e-01 1.9217691e-01 -1.2189518e-03 
2.1682175e-01 1.9214998e-01 -5.1352987e-03 
2.1570434e-01 1.9076438e-01 -1.1907112e-03 
2.1560170e-01 1.9081913e-01 -3.4602112e-03 
2.1586153e-01 1.9089757e-01 -8.4368023e-04 
2.1556683e-01 1.9087739e-01 -4.8179827e-03 
2.1782583e-01 1.9322257e-01 -6.1560189e-03 
2.1510252e-01 1.9027877e-01 -2.8490799e-03 
2.1592394e-01 1.9104397e-01 -2.0442680e-03 
2.1564126e-01 1.9095655e-01 -4.9218512e-03 
2.1467640e-01 1.8981157e-01 -2.2176767e-03 
2.1472004e-01 1.8978429e-01 -1.1679932e-03 
2.1604270e-01 1.9137673e-01 -5.1980228e-03 
2.1608038e-01 1.9135752e-01 -4.3706135e-03 
2.1410087e-01 1.8915702e-01 -1.0533244e-03 
2.1440582e-01 1.8973874e-01 -5.1318449e-03 
2.1394636e-01 1.8918812e-01 -3.7390122e-03 
2.1534444e-01 1.9052947e-01 -2.9909448e-03 
2.1498924e-01 1.9029817e-01 -4.8048589e-03 
2.1348178e-01 1.8852420e-01 -8.0450636e-04 
2.1317469e-01 1.8849108e-01 -4.8102201e-03 
2.1282600e-01 1.8796578e-01 -2.1942486e-03 
2.1354456e-01 1.8866672e-01 -1.9690895e-03 
2.1324728e-01 1.8856949e-01 -4.9245437e-03 
2.1469139e-01 1.9009393e-01 -6.1425427e-03 
2.1205163e-01 1.8711147e-01 -9.8558259e-04 
2.1190867e-01 1.8715809e-01 -3.7389954e-03 
2.1235840e-01 1.8742657e-01 -1.1174297e-03 
2.1203183e-01 1.8737327e-01 -5.1282835e-03 
2.1098864e-01 1.8613383e-01 -2.1705253e-03 
2.1291660e-01 1.8825956e-01 -5.1864465e-03 
2.1295273e-01 1.8823968e-01 -4.3614856e-03 
2.1113907e-01 1.8618685e-01 -7.6331641e-04 
2.1082075e-01 1.8614690e-01 -4.8052482e-03 
2.1120124e-01 1.8632749e-01 -1.8956671e-03 
2.0993996e-01 1.8519291e-01 -3.6783868e-03 
2.1065108e-01 1.8598647e-01 -4.9712406e-03 
2.1108383e-01 1.8627769e-01 -2.8893731e-03 
2.0972206e-01 1.8478896e-01 -9.5263222e-04 
2.1003154e-01 1.8510659e-01 -1.0679550e-03 
2.0969647e-01 1.8504643e-01 -5.1213689e-03 
2.0916271e-01 1.8431541e-01 -2.1473938e-03 
2.1156791e-01 1.8697880e-01 -6.1258976e-03 
2.0866057e-01 1.8385215e-01 -2.6983172e-03 
2.0882964e-01 1.8388762e-01 -7.2483689e-04 
2.0970887e-01 1.8503568e-01 -4.7737705e-03 
2.0830639e-01 1.8354730e-01 -3.3799438e-03 
2.0850505e-01 1.8383957e-01 -4.7980645e-03 
2.0834969e-01 1.8343405e-01 -1.1014678e-03 
2.0889193e-01 1.8402486e-01 -1.8241055e-03 
2.0980008e-01 1.8515354e-01 -5.1718950e-03 
2.0983528e-01 1.8513303e-01 -4.3489086e-03 
2.0857491e-01 1.8391587e-01 -4.9256757e-03 
2.0759326e-01 1.8266448e-01 -8.3711586e-04 
2.0735012e-01 1.8251091e-01 -2.1249969e-03 
2.0773834e-01 1.8282309e-01 -1.0179199e-03 
2.0739794e-01 1.8275820e-01 -5.1139188e-03 
2.0681657e-01 1.8191023e-01 -1.1031161e-03 
2.0647185e-01 1.8172732e-01 -3.4530985e-03 
2.0655426e-01 1.8162107e-01 -6.8639033e-04 
2.0622528e-01 1.8157206e-01 -4.7899452e-03 
2.0845230e-01 1.8387520e-01 -6.1082686e-03 
2.0661573e-01 1.8175672e-01 -1.7546131e-03 
2.0554949e-01 1.8071935e-01 -2.1019259e-03 
2.0606022e-01 1.8141758e-01 -4.9664141e-03 
2.0527759e-01 1.8036446e-01 -8.6845300e-04 
2.0648512e-01 1.8170488e-01 -2.9325257e-03 
2.0547815e-01 1.8057321e-01 -9.7114424e-04 
2.0521691e-01 1.8040106e-01 -2.2918165e-03 
2.0479257e-01 1.8007380e-01 -3.6848839e-03 
2.0669107e-01 1.8205945e-01 -5.1561757e-03 
2.0513551e-01 1.8050754e-01 -5.1053278e-03 
2.0672517e-01 1.8203850e-01 -4.3357695e-03 
2.0431080e-01 1.7939085e-01 -6.5042498e-04 
2.0515178e-01 1.8049818e-01 -4.7222483e-03 