# vtk DataFile Version 4.0
vtk output
ASCII
DATASET UNSTRUCTURED_GRID
POINTS 4496 float
-4.3633327e-01 9.6409470e-01 4.4200001e+01 
-4.3633258e-01 9.6409065e-01 4.4074627e+01 
-3.2152572e-01 9.1279918e-01 4.4200001e+01 
-3.8534868e-01 8.4052670e-01 4.4200001e+01 
-3.9589554e-01 8.5545403e-01 4.4010014e+01 
-3.2616228e-01 9.1667932e-01 4.4011734e+01 
-4.3633190e-01 9.6408653e-01 4.3948376e+01 
-2.1293370e-01 8.4677851e-01 4.4200001e+01 
-2.9042658e-01 7.3813015e-01 4.4200001e+01 
-2.1010752e-01 8.4669363e-01 4.4073502e+01 
-2.8908840e-01 7.3604190e-01 4.4072292e+01 
-3.9589015e-01 8.5505831e-01 4.3883316e+01 
-3.2487559e-01 9.1697580e-01 4.3885036e+01 
-2.0722924e-01 8.4660655e-01 4.3944645e+01 
-1.1981077e-01 7.7773046e-01 4.4200001e+01 
-2.8772619e-01 7.3391593e-01 4.3942276e+01 
-4.3633121e-01 9.6408242e-01 4.3821228e+01 
-1.9739023e-01 6.6468561e-01 4.4200001e+01 
-2.9444304e-01 7.8727525e-01 4.3879974e+01 
-8.7554991e-02 7.5255024e-01 4.4042213e+01 
-1.6445170e-01 6.4084798e-01 4.4041008e+01 
-3.2357255e-01 9.1726828e-01 4.3757431e+01 
-3.9587301e-01 8.5463828e-01 4.3755711e+01 
-2.0429766e-01 8.4651643e-01 4.3813354e+01 
-2.8633916e-01 7.3175091e-01 4.3809875e+01 
-2.6899619e-02 6.8901783e-01 4.4200001e+01 
-1.0567340e-01 7.7152997e-01 4.3875790e+01 
-4.3633053e-01 9.6407831e-01 4.3693161e+01 
-8.7133333e-02 5.9509218e-01 4.4200001e+01 
-1.8777622e-01 6.5475601e-01 4.3873402e+01 
-2.0131156e-01 8.4642249e-01 4.3679543e+01 
-3.2225290e-01 9.1755641e-01 4.3628902e+01 
-3.9584404e-01 8.5419410e-01 4.3627178e+01 
-1.0114321e-03 6.6670936e-01 4.3939713e+01 
-2.8492665e-01 7.2954547e-01 4.3675007e+01 
-1.0131179e-01 7.7015632e-01 4.3743176e+01 
-6.0682178e-02 5.7631296e-01 4.3938457e+01 
3.9444737e-02 6.2338209e-01 4.4053139e+01 
-1.8470748e-01 6.5131217e-01 4.3739727e+01 
-7.0938184e-03 5.4737431e-01 4.4052326e+01 
-4.3632981e-01 9.6407413e-01 4.3564159e+01 
7.6947339e-02 5.8804804e-01 4.4200001e+01 
-1.2721874e-02 6.8194175e-01 4.3817982e+01 
-7.7214435e-02 5.8474159e-01 4.3819649e+01 
4.0195532e-02 5.2425718e-01 4.4200001e+01 
-1.9826968e-01 8.4632379e-01 4.3543118e+01 
-9.6842363e-02 7.6872379e-01 4.3607994e+01 
-3.2091641e-01 9.1783977e-01 4.3499420e+01 
-3.9580306e-01 8.5372573e-01 4.3497700e+01 
-2.8348783e-01 7.2729832e-01 4.3537586e+01 
-1.8155001e-01 6.4778340e-01 4.3603539e+01 
1.5678726e-01 5.2239102e-01 4.4060219e+01 
1.0298219e-02 6.6009766e-01 4.3674484e+01 
1.3250886e-01 4.7546524e-01 4.4058990e+01 
-4.3632913e-01 9.6407002e-01 4.3434200e+01 
-5.0139543e-02 5.6696451e-01 4.3671154e+01 
1.3504514e-01 5.4209155e-01 4.3856747e+01 
1.0361936e-01 4.8715758e-01 4.3855240e+01 
2.0846681e-01 4.8028421e-01 4.4200001e+01 
1.9279444e-01 4.4799727e-01 4.4200001e+01 
-9.2261828e-02 7.6722860e-01 4.3470158e+01 
-1.4701239e-03 6.7547697e-01 4.3552124e+01 
-1.9517080e-01 8.4621930e-01 4.3403992e+01 
-3.1956279e-01 9.1811794e-01 4.3368977e+01 
-3.9574999e-01 8.5323322e-01 4.3367252e+01 
-1.7830023e-01 6.4416617e-01 4.3464752e+01 
-6.7131944e-02 5.7555372e-01 4.3547829e+01 
-2.8202194e-01 7.2500783e-01 4.3397518e+01 
-4.3632844e-01 9.6406585e-01 4.3303261e+01 
1.5138821e-01 5.3037512e-01 4.3609200e+01 
1.2119007e-01 4.7490793e-01 4.3606068e+01 
-8.7566733e-02 7.6566672e-01 4.3329563e+01 
-1.7495437e-01 6.4045686e-01 4.3323273e+01 
-3.1819177e-01 9.1839045e-01 4.3237537e+01 
-3.9568463e-01 8.5271639e-01 4.3235813e+01 
2.2269404e-02 6.5294570e-01 4.3398811e+01 
-1.9201367e-01 8.4610778e-01 4.3262066e+01 
-3.8899176e-02 5.5709696e-01 4.3393635e+01 
-2.8052819e-01 7.2267252e-01 4.3254715e+01 
3.7877345e-01 3.8273901e-01 4.4200001e+01 
-4.3632776e-01 9.6406174e-01 4.3171322e+01 
3.9241230e-01 3.7329337e-01 4.3965439e+01 
1.0283732e-02 6.6872352e-01 4.3271511e+01 
-5.6385640e-02 5.6585240e-01 4.3265472e+01 
-8.2753494e-02 7.6403379e-01 4.3186119e+01 
-4.0345609e-01 8.6371827e-01 4.3104889e+01 
-3.1680310e-01 9.1865683e-01 4.3105087e+01 
-1.7150842e-01 6.3665158e-01 4.3179005e+01 
-1.8879703e-01 8.4598809e-01 4.3117241e+01 
-2.7900568e-01 7.2029078e-01 4.3109074e+01 
4.0610775e-01 3.6380205e-01 4.3729839e+01 
1.6776134e-01 5.1882964e-01 4.3331150e+01 
-4.3632707e-01 9.6405768e-01 4.3038357e+01 
1.4031014e-01 4.6124566e-01 4.3307755e+01 
3.4952711e-02 6.4519531e-01 4.3111935e+01 
-7.7818394e-02 7.6232505e-01 4.3039719e+01 
-3.1539652e-01 9.1891652e-01 4.2971603e+01 
-3.9551663e-01 8.5160977e-01 4.2969879e+01 
-2.6899155e-02 5.4666573e-01 4.3105160e+01 
-1.6795819e-01 6.3274628e-01 4.3031849e+01 
-1.8551964e-01 8.4585863e-01 4.2969406e+01 
4.1985780e-01 3.5425979e-01 4.3493168e+01 
-2.7745360e-01 7.1786088e-01 4.2960495e+01 
-4.3632638e-01 9.6405357e-01 4.2904346e+01 
2.2723136e-02 6.6139150e-01 4.2979332e+01 
-4.4916678e-02 5.5559248e-01 4.2971806e+01 
-3.1397179e-01 9.1916907e-01 4.2837063e+01 
-3.9541367e-01 8.5101974e-01 4.2835335e+01 
-7.2757579e-02 7.6053542e-01 4.2890255e+01 
-1.6429928e-01 6.2873662e-01 4.2881699e+01 
1.8463810e-01 5.0694346e-01 4.3035332e+01 
-1.8218029e-01 8.4571803e-01 4.2818455e+01 
1.5503895e-01 4.5003417e-01 4.3027725e+01 
-2.7587104e-01 7.1538109e-01 4.2808868e+01 
4.3366045e-01 3.4466109e-01 4.3255390e+01 
-4.3632573e-01 9.6404958e-01 4.2769268e+01 
-3.8429454e-01 8.3484912e-01 4.2710606e+01 
-3.1252861e-01 9.1941386e-01 4.2701439e+01 
4.8404284e-02 6.3678014e-01 4.2813030e+01 
-1.4070326e-02 5.3562075e-01 4.2804932e+01 
-6.7567028e-02 7.5865942e-01 4.2737610e+01 
-1.6052702e-01 6.2461799e-01 4.2728443e+01 
-1.7877772e-01 8.4556442e-01 4.2664265e+01 
-4.3632504e-01 9.6404558e-01 4.2633099e+01 
-2.7425703e-01 7.1284944e-01 4.2654083e+01 
4.4751364e-01 3.3500037e-01 4.3016472e+01 
3.5901129e-02 6.5341437e-01 4.2674721e+01 
-3.7959340e-01 8.2794034e-01 4.2568317e+01 
-3.1106678e-01 9.1965032e-01 4.2564713e+01 
-3.2659348e-02 5.4472327e-01 4.2665997e+01 
2.0396979e-01 4.9291667e-01 4.2740131e+01 
-6.2242586e-02 7.5669110e-01 4.2581669e+01 
1.7765003e-01 4.3475360e-01 4.2732578e+01 
-1.5663649e-01 6.2038553e-01 4.2571964e+01 
-4.3632439e-01 9.6404165e-01 4.2495808e+01 
-1.7531081e-01 8.4539592e-01 4.2506718e+01 
-2.7261066e-01 7.1026409e-01 4.2496017e+01 
-3.0958602e-01 9.1987789e-01 4.2426853e+01 
-3.7859210e-01 8.2613736e-01 4.2421188e+01 
4.6141517e-01 3.2527190e-01 4.2776375e+01 
6.2686495e-02 6.2762415e-01 4.2501175e+01 
-3.3570320e-04 5.2390522e-01 4.2492062e+01 
-5.6779940e-02 7.5462401e-01 4.2422298e+01 
-4.3632373e-01 9.6403772e-01 4.2357380e+01 
-1.5262254e-01 6.1603409e-01 4.2412144e+01 
-1.7177837e-01 8.4521037e-01 4.2345684e+01 
-2.7093092e-01 7.0762289e-01 4.2334549e+01 
-3.0808610e-01 9.2009580e-01 4.2287842e+01 
-3.8275370e-01 8.3137155e-01 4.2275047e+01 
4.9876589e-02 6.4471585e-01 4.2356720e+01 
-1.9539909e-02 5.3318781e-01 4.2347118e+01 
-4.3632311e-01 9.6403396e-01 4.2217781e+01 
2.1959943e-01 4.8236796e-01 4.2385345e+01 
-5.1174615e-02 7.5245124e-01 4.2259373e+01 
1.9034323e-01 4.2346162e-01 4.2378918e+01 
-1.4847966e-01 6.1155808e-01 4.2248856e+01 
4.7536272e-01 3.1546980e-01 4.2535065e+01 
-1.6817927e-01 8.4500539e-01 4.2181026e+01 
-2.6921678e-01 7.0492369e-01 4.2169544e+01 
-3.0656675e-01 9.2030340e-01 4.2147648e+01 
-3.9470181e-01 8.4769493e-01 4.2145920e+01 
7.7868804e-02 6.1763972e-01 4.2175373e+01 
-4.3632248e-01 9.6403021e-01 4.2076988e+01 
1.4390758e-02 5.1145434e-01 4.2165581e+01 
-4.5421973e-02 7.5016522e-01 4.2092751e+01 
-1.4420210e-01 6.0695171e-01 4.2081959e+01 
-3.0502778e-01 9.2049998e-01 4.2006248e+01 
-4.0175444e-01 8.5747409e-01 4.2004128e+01 
-1.6451253e-01 8.4477836e-01 4.2012604e+01 
4.8935395e-01 3.0558801e-01 4.2292507e+01 
-2.6746723e-01 7.0216429e-01 4.2000870e+01 
6.4714879e-02 6.3520777e-01 4.2024277e+01 
-4.3632188e-01 9.6402657e-01 4.1934975e+01 
-5.4755262e-03 5.2092212e-01 4.2014156e+01 
-2.3078828e-01 8.1064087e-01 4.1931458e+01 
2.3550548e-01 4.7116494e-01 4.2073269e+01 
2.0610523e-01 4.1123796e-01 4.2066772e+01 
-3.9517213e-02 7.4775779e-01 4.1922287e+01 
-1.3978374e-01 6.0220873e-01 4.1911320e+01 
-3.0346894e-01 9.2068475e-01 4.1863613e+01 
-3.9432141e-01 8.4618556e-01 4.1861881e+01 
-1.6077711e-01 8.4452641e-01 4.1840263e+01 
-2.6568118e-01 6.9934219e-01 4.1828377e+01 
-4.3632129e-01 9.6402299e-01 4.1791718e+01 
5.0338638e-01 2.9562023e-01 4.2048656e+01 
9.4028555e-02 6.0672593e-01 4.1834507e+01 
3.0205652e-02 4.9819478e-01 4.1824417e+01 
-3.8116732e-01 8.2744831e-01 4.1725647e+01 
-3.0189002e-01 9.2085695e-01 4.1719719e+01 
-3.3455357e-02 7.4522001e-01 4.1747829e+01 
-1.3521814e-01 5.9732240e-01 4.1736786e+01 
-4.3632072e-01 9.6401960e-01 4.1647179e+01 
-1.5697217e-01 8.4424627e-01 4.1663853e+01 
-2.6385748e-01 6.9645494e-01 4.1651920e+01 
8.0488607e-02 6.2478805e-01 4.1676235e+01 
2.6870471e-01 4.4547972e-01 4.1752304e+01 
9.6269641e-03 5.0785345e-01 4.1665993e+01 
2.4764967e-01 3.8646612e-01 4.1743168e+01 
-3.0029076e-01 9.2101562e-01 4.1574532e+01 
-3.9388368e-01 8.4456980e-01 4.1572796e+01 
5.1745731e-01 2.8556010e-01 4.1803486e+01 
-2.7231261e-02 7.4254233e-01 4.1569210e+01 
-1.3049847e-01 5.9228569e-01 4.1558201e+01 
-4.3632016e-01 9.6401632e-01 4.1501339e+01 
-1.5309690e-01 8.4393430e-01 4.1483204e+01 
-2.6199502e-01 6.9349992e-01 4.1471333e+01 
-2.9867104e-01 9.2115986e-01 4.1428024e+01 
-3.9364263e-01 8.4372103e-01 4.1426289e+01 
1.1125199e-01 5.9476525e-01 4.1477348e+01 
4.7217656e-02 4.8404291e-01 4.1467384e+01 
-4.3631962e-01 9.6401310e-01 4.1354160e+01 
-2.0839609e-02 7.3971421e-01 4.1386261e+01 
-1.2561750e-01 5.8709091e-01 4.1375404e+01 
5.3156406e-01 2.7540097e-01 4.1556946e+01 
-1.4915068e-01 8.4358656e-01 4.1298138e+01 
-2.9703063e-01 9.2128879e-01 4.1280167e+01 
-3.9338648e-01 8.4284443e-01 4.1278431e+01 
-2.6009262e-01 6.9047421e-01 4.1286449e+01 
2.9365057e-01 4.2687622e-01 4.1391586e+01 
9.7278498e-02 6.1333776e-01 4.1311302e+01 
2.7470219e-01 3.6807936e-01 4.1382729e+01 
2.5872495e-02 4.9389899e-01 4.1301384e+01 
-4.3631911e-01 9.6401012e-01 4.1205620e+01 
-1.4274905e-02 7.3672432e-01 4.1198803e+01 
-1.2056758e-01 5.8173001e-01 4.1188221e+01 
-2.9536936e-01 9.2140132e-01 4.1130928e+01 
[...]
POINT_DATA 4496
FIELD FieldData 5
DISPLACEMENT 3 4496  float
6.3036913e-01 5.7783931e-01 -1.3930847e-02 
6.2669700e-01 5.7413048e-01 -1.3822059e-02 
6.3039774e-01 5.7793695e-01 -1.5781384e-02 
6.3053519e-01 5.7792681e-01 -1.1774293e-02 
6.2495244e-01 5.7229310e-01 -1.1741464e-02 
6.2487960e-01 5.7236278e-01 -1.5596871e-02 
6.2299919e-01 5.7039571e-01 -1.3712501e-02 
6.3045150e-01 5.7803702e-01 -1.7014569e-02 
6.3065016e-01 5.7803380e-01 -1.1531699e-02 
6.2674534e-01 5.7429671e-01 -1.6985266e-02 
6.2691224e-01 5.7425767e-01 -1.1398520e-02 
6.2124217e-01 5.6854528e-01 -1.1620099e-02 
6.2116778e-01 5.6861550e-01 -1.5533500e-02 
6.2297016e-01 5.7048672e-01 -1.6955350e-02 
6.3051653e-01 5.7812828e-01 -1.7704720e-02 
6.2310684e-01 5.7041329e-01 -1.1262981e-02 
6.1927521e-01 5.6663442e-01 -1.3602137e-02 
6.3072193e-01 5.7812697e-01 -1.2089348e-02 
6.2120378e-01 5.6854254e-01 -1.2588815e-02 
6.2591952e-01 5.7349265e-01 -1.7769640e-02 
6.2608719e-01 5.7345551e-01 -1.2212928e-02 
6.1742949e-01 5.6484157e-01 -1.5469599e-02 
6.1750543e-01 5.6477082e-01 -1.1497635e-02 
6.1912364e-01 5.6660479e-01 -1.6924744e-02 
6.1923158e-01 5.6649852e-01 -1.1124977e-02 
6.3061160e-01 5.7822812e-01 -1.7807538e-02 
6.2102395e-01 5.6854916e-01 -1.7654896e-02 
6.1552459e-01 5.6284630e-01 -1.3490910e-02 
6.3078046e-01 5.7822978e-01 -1.3265678e-02 
6.2116688e-01 5.6847590e-01 -1.1794792e-02 
6.1520344e-01 5.6264848e-01 -1.6893372e-02 
6.1366427e-01 5.6104040e-01 -1.5405209e-02 
6.1374182e-01 5.6096923e-01 -1.1374077e-02 
6.2301058e-01 5.7055449e-01 -1.7681725e-02 
6.1528426e-01 5.6251091e-01 -1.0984515e-02 
6.1714011e-01 5.6462955e-01 -1.7627116e-02 
6.2313700e-01 5.7051790e-01 -1.3259621e-02 
6.2638134e-01 5.7395554e-01 -1.7685967e-02 
6.1725551e-01 5.6452507e-01 -1.1667284e-02 
6.2649328e-01 5.7393438e-01 -1.4074406e-02 
6.1174667e-01 5.5903077e-01 -1.3378916e-02 
6.3072067e-01 5.7834053e-01 -1.7868763e-02 
6.1942697e-01 5.6693882e-01 -1.7682916e-02 
6.1965132e-01 5.6698865e-01 -1.2921038e-02 
6.3083363e-01 5.7834435e-01 -1.4905880e-02 
6.1120701e-01 5.5861527e-01 -1.6861131e-02 
6.1318129e-01 5.6063432e-01 -1.7598463e-02 
6.0987157e-01 5.5721170e-01 -1.5340293e-02 
6.0995066e-01 5.5713987e-01 -1.1249335e-02 
6.1126244e-01 5.5844814e-01 -1.0841440e-02 
6.1327082e-01 5.6050026e-01 -1.1537736e-02 
6.2669194e-01 5.7428622e-01 -1.8148385e-02 
6.1524737e-01 5.6271839e-01 -1.7587956e-02 
6.2673777e-01 5.7425445e-01 -1.6048541e-02 
6.0794109e-01 5.5518728e-01 -1.3265934e-02 
6.1531723e-01 5.6262130e-01 -1.3061019e-02 
6.2071139e-01 5.6824350e-01 -1.7916642e-02 
6.2076426e-01 5.6820244e-01 -1.5370347e-02 
6.3082820e-01 5.7847416e-01 -1.8540576e-02 
6.3088411e-01 5.7847804e-01 -1.7126743e-02 
6.0914493e-01 5.5656093e-01 -1.7568847e-02 
6.1164558e-01 5.5908459e-01 -1.7591124e-02 
6.0713178e-01 5.5450267e-01 -1.6827984e-02 
6.0605079e-01 5.5335474e-01 -1.5274793e-02 
6.0613161e-01 5.5328250e-01 -1.1123514e-02 
6.0921037e-01 5.5639905e-01 -1.1406290e-02 
6.1169952e-01 5.5895859e-01 -1.2710013e-02 
6.0716349e-01 5.5430776e-01 -1.0695796e-02 
6.0410714e-01 5.5131561e-01 -1.3152149e-02 
6.1347133e-01 5.6093556e-01 -1.7834889e-02 
6.1347675e-01 5.6084770e-01 -1.5307647e-02 
6.0502845e-01 5.5240685e-01 -1.7538093e-02 
6.0507143e-01 5.5221885e-01 -1.1272635e-02 
6.0220152e-01 5.4946935e-01 -1.5208678e-02 
6.0228401e-01 5.4939663e-01 -1.0996443e-02 
6.0717964e-01 5.5457520e-01 -1.7488314e-02 
6.0297507e-01 5.5030799e-01 -1.6793763e-02 
6.0719949e-01 5.5442441e-01 -1.2859085e-02 
6.0298496e-01 5.5008709e-01 -1.0547507e-02 
6.3090354e-01 5.7862872e-01 -2.0651607e-02 
6.0024452e-01 5.4741490e-01 -1.3037628e-02 
6.2404120e-01 5.7170147e-01 -2.0568943e-02 
6.0343355e-01 5.5079597e-01 -1.7492466e-02 
6.0344082e-01 5.5061924e-01 -1.2494654e-02 
6.0082906e-01 5.4816931e-01 -1.7506095e-02 
5.9843791e-01 5.4551649e-01 -1.0980600e-02 
5.9832311e-01 5.4555452e-01 -1.5142198e-02 
6.0085171e-01 5.4795718e-01 -1.1137072e-02 
5.9873408e-01 5.4602867e-01 -1.6758289e-02 
5.9872419e-01 5.4578370e-01 -1.0396239e-02 
6.1714822e-01 5.6474352e-01 -2.0485580e-02 
6.0533857e-01 5.5272675e-01 -1.7732672e-02 
5.9635246e-01 5.4348487e-01 -1.2922321e-02 
6.0475224e-01 5.5204231e-01 -1.5206515e-02 
5.9878641e-01 5.4610401e-01 -1.7381907e-02 
5.9654403e-01 5.4384553e-01 -1.7472705e-02 
5.9441549e-01 5.4161048e-01 -1.5074825e-02 
5.9450120e-01 5.4153669e-01 -1.0739257e-02 
5.9876335e-01 5.4590690e-01 -1.2653875e-02 
5.9654802e-01 5.4361135e-01 -1.0999107e-02 
5.9440595e-01 5.4166150e-01 -1.6721584e-02 
6.1022419e-01 5.5775392e-01 -2.0401148e-02 
5.9437817e-01 5.4139453e-01 -1.0242456e-02 
5.9243089e-01 5.3952503e-01 -1.2805752e-02 
5.9488595e-01 5.4216951e-01 -1.7386407e-02 
5.9485406e-01 5.4194987e-01 -1.2274993e-02 
5.9047759e-01 5.3763616e-01 -1.5006917e-02 
5.9056532e-01 5.3756231e-01 -1.0609171e-02 
5.9217042e-01 5.3943264e-01 -1.7437752e-02 
5.9215814e-01 5.3917849e-01 -1.0859344e-02 
5.9668791e-01 5.4399568e-01 -1.7619517e-02 
5.8998764e-01 5.3720367e-01 -1.6683344e-02 
5.9656364e-01 5.4377675e-01 -1.5065134e-02 
5.8994460e-01 5.3691751e-01 -1.0085764e-02 
6.0326886e-01 5.5073339e-01 -2.0315828e-02 
5.8847892e-01 5.3553534e-01 -1.2688631e-02 
5.8693612e-01 5.3389311e-01 -1.0350524e-02 
5.8650947e-01 5.3363204e-01 -1.4938180e-02 
5.9004515e-01 5.3728282e-01 -1.7267639e-02 
5.8998710e-01 5.3704774e-01 -1.2445667e-02 
5.8770496e-01 5.3492779e-01 -1.7401207e-02 
5.8767843e-01 5.3465581e-01 -1.0716930e-02 
5.8547664e-01 5.3265303e-01 -1.6643668e-02 
5.8449644e-01 5.3151500e-01 -1.2570392e-02 
5.8541954e-01 5.3234833e-01 -9.9257734e-03 
5.9628183e-01 5.4368126e-01 -2.0228885e-02 
5.8597952e-01 5.3318250e-01 -1.7271889e-02 
5.8278334e-01 5.2969873e-01 -1.0162089e-02 
5.8251047e-01 5.2959692e-01 -1.4868462e-02 
5.8591670e-01 5.3292871e-01 -1.2051074e-02 
5.8806121e-01 5.3529078e-01 -1.7515711e-02 
5.8314508e-01 5.3032768e-01 -1.7363107e-02 
5.8793873e-01 5.3507632e-01 -1.5022231e-02 
5.8310640e-01 5.3004038e-01 -1.0572966e-02 
5.8048272e-01 5.2746350e-01 -1.2450720e-02 
5.8086866e-01 5.2800494e-01 -1.6602634e-02 
5.8080071e-01 5.2768558e-01 -9.7631691e-03 
5.7847953e-01 5.2553040e-01 -1.4798145e-02 
5.7848471e-01 5.2535945e-01 -1.0012459e-02 
5.8926421e-01 5.3659964e-01 -2.0140311e-02 
5.8093148e-01 5.2808756e-01 -1.7144237e-02 
5.8084720e-01 5.2782381e-01 -1.2234311e-02 
5.7848686e-01 5.2562922e-01 -1.7322531e-02 
5.7643712e-01 5.2338088e-01 -1.2330566e-02 
5.7843834e-01 5.2532905e-01 -1.0426128e-02 
5.7616109e-01 5.2325720e-01 -1.6559495e-02 
5.7608449e-01 5.2292532e-01 -9.5974226e-03 
5.7441705e-01 5.2143258e-01 -1.4726895e-02 
5.7420874e-01 5.2104604e-01 -9.9202190e-03 
5.7668889e-01 5.2380967e-01 -1.7147142e-02 
5.7660484e-01 5.2353209e-01 -1.1822935e-02 
5.7235956e-01 5.1926696e-01 -1.2209518e-02 
5.7769442e-01 5.2483094e-01 -1.7354811e-02 
5.7372725e-01 5.2082926e-01 -1.7279677e-02 
5.7760668e-01 5.2464861e-01 -1.4757168e-02 
5.7367146e-01 5.2051908e-01 -1.0277302e-02 
5.8221209e-01 5.2948385e-01 -2.0049430e-02 
5.7135022e-01 5.1840615e-01 -1.6514344e-02 
5.7126749e-01 5.1806450e-01 -9.4285971e-03 
5.7032233e-01 5.1730323e-01 -1.4654632e-02 
5.7041836e-01 5.1722741e-01 -9.9408459e-03 
5.7141954e-01 5.1849329e-01 -1.7010726e-02 
5.6824964e-01 5.1512057e-01 -1.2087828e-02 
5.7131827e-01 5.1821071e-01 -1.2020711e-02 
5.6886256e-01 5.1592439e-01 -1.7234461e-02 
5.6880265e-01 5.1560664e-01 -1.0125577e-02 
5.6619400e-01 5.1314002e-01 -1.4582606e-02 
5.6626803e-01 5.1304394e-01 -9.9020703e-03 
5.6643230e-01 5.1344824e-01 -1.6466778e-02 
5.7512844e-01 5.2233726e-01 -1.9956570e-02 
5.6634688e-01 5.1310021e-01 -9.2560584e-03 
5.6698763e-01 5.1402634e-01 -1.7011387e-02 
5.6410563e-01 5.1094085e-01 -1.1965684e-02 
5.6689197e-01 5.1373512e-01 -1.1591004e-02 
5.6414437e-01 5.1103383e-01 -1.3456525e-02 
5.6858689e-01 5.1564544e-01 -1.7219726e-02 
5.6849837e-01 5.1546192e-01 -1.4591527e-02 
5.6388921e-01 5.1091152e-01 -1.7186759e-02 
5.6382757e-01 5.1058900e-01 -9.9714287e-03 
5.6203234e-01 5.0894445e-01 -1.4509423e-02 
5.6213158e-01 5.0886804e-01 -9.6666953e-03 
5.6140375e-01 5.0838023e-01 -1.6417718e-02 
5.6131804e-01 5.0802696e-01 -9.0796854e-03 
5.5992752e-01 5.0672716e-01 -1.1841758e-02 
5.6801403e-01 5.1516229e-01 -1.9861804e-02 
5.6148022e-01 5.0847250e-01 -1.6865641e-02 
5.6137294e-01 5.0818264e-01 -1.1804492e-02 
5.5818146e-01 5.0487840e-01 -9.3840603e-03 
5.5783623e-01 5.0471485e-01 -1.4434532e-02 
5.5880237e-01 5.0578475e-01 -1.7136391e-02 
5.5874205e-01 5.0546068e-01 -9.8143229e-03 
5.5571485e-01 5.0247937e-01 -1.1716117e-02 
5.5626035e-01 5.0319707e-01 -1.6365811e-02 
5.5617732e-01 5.0284302e-01 -8.9010624e-03 
5.5684513e-01 5.0380272e-01 -1.6862961e-02 
5.5924487e-01 5.0623059e-01 -1.7156562e-02 
5.5674821e-01 5.0350893e-01 -1.1354772e-02 
5.5907440e-01 5.0597447e-01 -1.4801210e-02 
5.5360490e-01 5.0045103e-01 -1.4358724e-02 
5.5370826e-01 5.0037354e-01 -9.3867304e-03 
5.6087029e-01 5.0796163e-01 -1.9764561e-02 
5.5359894e-01 5.0054181e-01 -1.7082524e-02 
5.5354363e-01 5.0021970e-01 -9.6563175e-03 
5.5146796e-01 4.9819902e-01 -1.1589931e-02 
5.5099773e-01 4.9789605e-01 -1.6310496e-02 
5.5092108e-01 4.9754456e-01 -8.7193009e-03 
5.4933941e-01 4.9615341e-01 -1.4281658e-02 
5.4944450e-01 4.9607706e-01 -9.2456238e-03 
5.5108213e-01 4.9799424e-01 -1.6706217e-02 
5.5098170e-01 4.9771053e-01 -1.1585778e-02 
5.4718566e-01 4.9388468e-01 -1.1463976e-02 
5.4827428e-01 4.9517933e-01 -1.7024865e-02 
5.4822713e-01 4.9486205e-01 -9.4941743e-03 
5.5369043e-01 5.0072539e-01 -1.9663047e-02 
5.4561239e-01 4.9247304e-01 -1.6252523e-02 
5.4503816e-01 4.9182218e-01 -1.4204784e-02 
5.4514360e-01 4.9174458e-01 -9.1028316e-03 
5.4554474e-01 4.9212691e-01 -8.5315099e-03 
5.4875267e-01 4.9566028e-01 -1.7026789e-02 
5.4622912e-01 4.9310774e-01 -1.6699040e-02 
5.4858893e-01 4.9541447e-01 -1.4744768e-02 
5.4614604e-01 4.9282622e-01 -1.1115005e-02 
5.4286683e-01 4.8953363e-01 -1.1336244e-02 
5.4282504e-01 4.8969129e-01 -1.6964762e-02 
5.4278767e-01 4.8938304e-01 -9.3294084e-03 
5.4069948e-01 4.8745263e-01 -1.4126583e-02 
5.4080838e-01 4.8737583e-01 -8.9594917e-03 
5.4009855e-01 4.8692212e-01 -1.6191144e-02 
5.4004472e-01 4.8658574e-01 -8.3420454e-03 
5.4648066e-01 4.9346265e-01 -1.9558927e-02 
5.3851116e-01 4.8514643e-01 -1.1208397e-02 
5.4019243e-01 4.8702684e-01 -1.6532430e-02 
5.4011029e-01 4.8676154e-01 -1.1364751e-02 
5.3632462e-01 4.8304921e-01 -1.4047559e-02 
5.3643394e-01 4.8297063e-01 -8.8148909e-03 
5.3724372e-01 4.8407412e-01 -1.6898774e-02 
5.3722304e-01 4.8377857e-01 -9.1632707e-03 
5.3411829e-01 4.8072362e-01 -1.1077844e-02 
5.3445315e-01 4.8124012e-01 -1.6126180e-02 
5.3441477e-01 4.8091796e-01 -8.1474753e-03 
5.3776127e-01 4.8459357e-01 -1.6892269e-02 
5.3761816e-01 4.8437181e-01 -1.4696805e-02 
5.3455019e-01 4.8134762e-01 -1.6436158e-02 
5.3924078e-01 4.8617291e-01 -1.9452322e-02 
5.3191203e-01 4.7860786e-01 -1.3965291e-02 
5.3202420e-01 4.7853133e-01 -8.6702798e-03 
5.3448367e-01 4.8109913e-01 -1.1253611e-02 
5.3152978e-01 4.7832340e-01 -1.6829861e-02 
5.3152597e-01 4.7804463e-01 -8.9930939e-03 
5.2968872e-01 4.7626612e-01 -1.0948202e-02 
5.2866918e-01 4.7542250e-01 -1.6057525e-02 
5.2865368e-01 4.7511843e-01 -7.9493802e-03 
5.2746308e-01 4.7413406e-01 -1.3883179e-02 
5.2757514e-01 4.7405523e-01 -8.5237827e-03 
5.2877259e-01 4.7553352e-01 -1.6337307e-02 
5.2694172e-01 4.7348705e-01 -1.0478787e-02 
5.2872539e-01 4.7530541e-01 -1.1142772e-02 
5.2522135e-01 4.7177225e-01 -1.0815626e-02 
5.3196293e-01 4.7884518e-01 -1.9340318e-02 
5.2875268e-01 4.7552484e-01 -1.6676448e-02 
5.2567458e-01 4.7243530e-01 -1.6752439e-02 
5.2871472e-01 4.7540024e-01 -1.4180494e-02 
5.2569467e-01 4.7217798e-01 -8.8206148e-03 
5.2297503e-01 4.6962038e-01 -1.3798260e-02 
5.2308941e-01 4.6954402e-01 -8.3759231e-03 
5.2274603e-01 4.6946675e-01 -1.5980816e-02 
5.2275276e-01 4.6918389e-01 -7.7508697e-03 
5.2071601e-01 4.6724227e-01 -1.0684560e-02 
5.2285296e-01 4.6957994e-01 -1.6233791e-02 
5.2282828e-01 4.6937692e-01 -1.1030938e-02 
5.1967645e-01 4.6640533e-01 -1.6672671e-02 
5.1844931e-01 4.6507066e-01 -1.3714034e-02 
5.1856446e-01 4.6499410e-01 -8.2268901e-03 
5.1972222e-01 4.6617368e-01 -8.6444151e-03 
5.2465516e-01 4.7149509e-01 -1.9227494e-02 
5.1667440e-01 4.6336484e-01 -1.5904481e-02 
5.1617068e-01 4.6267265e-01 -1.0551353e-02 
5.2067012e-01 4.6734551e-01 -1.5016621e-02 
5.2058882e-01 4.6732956e-01 -1.6926670e-02 
5.1671058e-01 4.6311006e-01 -7.5431629e-03 
5.1678628e-01 4.6348172e-01 -1.6124038e-02 
5.1678693e-01 4.6330494e-01 -1.0919446e-02 
5.1388198e-01 4.6048230e-01 -1.3628916e-02 
5.1399881e-01 4.6040544e-01 -8.0768680e-03 
5.1352692e-01 4.6022633e-01 -1.6587133e-02 
5.1360470e-01 4.6002507e-01 -8.4662642e-03 
5.1158339e-01 4.5806307e-01 -1.0416933e-02 
5.1731724e-01 4.6411696e-01 -1.9106371e-02 
5.1044708e-01 4.5711055e-01 -1.5823098e-02 
5.1051897e-01 4.5688850e-01 -7.3308288e-03 
5.0927740e-01 4.5585927e-01 -1.3538077e-02 
5.0939471e-01 4.5578039e-01 -7.9278974e-03 
5.1331723e-01 4.5995674e-01 -1.4880223e-02 
5.1323855e-01 4.5994291e-01 -1.6804380e-02 
5.1047051e-01 4.5713693e-01 -1.6006833e-02 
5.1044941e-01 4.5693952e-01 -1.0766268e-02 
5.0788158e-01 4.5436737e-01 -1.0941414e-02 
5.0696331e-01 4.5342442e-01 -1.0279950e-02 
5.0727648e-01 4.5395041e-01 -1.6498094e-02 
5.0742388e-01 4.5381609e-01 -8.2433177e-03 
5.0467461e-01 4.5123735e-01 -1.3404059e-02 
5.0479472e-01 4.5116287e-01 -7.7945804e-03 
5.0417322e-01 4.5081437e-01 -1.5731847e-02 
5.0994873e-01 4.5671305e-01 -1.8981218e-02 
5.0434744e-01 4.5069277e-01 -7.1247416e-03 
5.0238025e-01 4.4882479e-01 -1.0147788e-02 
5.0405991e-01 4.5070222e-01 -1.5903672e-02 
5.0421387e-01 4.5067495e-01 -1.0463002e-02 
5.0595361e-01 4.5256320e-01 -1.4755174e-02 
5.0587779e-01 4.5255148e-01 -1.6682807e-02 
5.0176889e-01 4.4823197e-01 -1.0764441e-02 
5.0010943e-01 4.4665787e-01 -1.3270365e-02 
5.0106084e-01 4.4771314e-01 -1.6408810e-02 
5.0022757e-01 4.4658002e-01 -7.6619848e-03 
5.0130725e-01 4.4767779e-01 -8.0016758e-03 
4.9783319e-01 4.4426250e-01 -1.0013162e-02 
4.9801648e-01 4.4463977e-01 -1.5639449e-02 
4.9828100e-01 4.4460720e-01 -6.9242083e-03 
5.0258553e-01 4.4932050e-01 -1.8851807e-02 
4.9790624e-01 4.4453096e-01 -1.5817313e-02 
4.9815470e-01 4.4459090e-01 -1.0156352e-02 
4.9557695e-01 4.4211146e-01 -1.3138079e-02 
4.9569669e-01 4.4203705e-01 -7.5313896e-03 
4.9840957e-01 4.4504583e-01 -1.6134175e-02 
4.9852410e-01 4.4507509e-01 -1.3537453e-02 
4.9495992e-01 4.4159809e-01 -1.6318550e-02 
4.9529129e-01 4.4164163e-01 -7.7654733e-03 
4.9421838e-01 4.4066024e-01 -1.0539967e-02 
4.9332103e-01 4.3973991e-01 -9.8818522e-03 
4.9231604e-01 4.3862641e-01 -6.7260703e-03 
4.9196929e-01 4.3857995e-01 -1.5545532e-02 
4.9108195e-01 4.3760487e-01 -1.3004113e-02 
4.9120212e-01 4.3753332e-01 -7.4034058e-03 
4.9219319e-01 4.3861201e-01 -9.8572969e-03 
4.9186137e-01 4.3847448e-01 -1.5733523e-02 
4.9524343e-01 4.4195929e-01 -1.8722327e-02 
4.8884401e-01 4.3525457e-01 -9.7535290e-03 
4.8937514e-01 4.3570995e-01 -7.5351731e-03 
4.8896632e-01 4.3559632e-01 -1.6227717e-02 
4.9120572e-01 4.3784088e-01 -1.6436020e-02 
4.9071792e-01 4.3725574e-01 -1.3538673e-02 
4.8662150e-01 4.3313718e-01 -1.2871685e-02 
4.8665839e-01 4.3298385e-01 -7.3209731e-03 
4.8644838e-01 4.3274483e-01 -6.5263305e-03 
4.8603204e-01 4.3263450e-01 -1.5456443e-02 
4.8479804e-01 4.3122959e-01 -1.0443684e-02 
4.8439986e-01 4.3080300e-01 -9.6225077e-03 
4.8632681e-01 4.3273038e-01 -9.5678186e-03 
4.8516259e-01 4.3176094e-01 -1.5480770e-02 
4.8355180e-01 4.2987868e-01 -7.3146843e-03 
4.8308134e-01 4.2970344e-01 -1.6135007e-02 
4.8219165e-01 4.2870015e-01 -1.2736923e-02 
4.8792949e-01 4.3463525e-01 -1.8591944e-02 
4.8231074e-01 4.2863041e-01 -7.1477508e-03 
4.8147216e-01 4.2789164e-01 -1.0091056e-02 
4.8403257e-01 4.3056253e-01 -1.3387124e-02 
4.7998938e-01 4.2638946e-01 -9.4948970e-03 
4.8067081e-01 4.2696500e-01 -6.3425512e-03 
4.8019898e-01 4.2679527e-01 -1.5358378e-02 
4.8390123e-01 4.3052989e-01 -1.6306035e-02 
4.8055717e-01 4.2695406e-01 -9.2824372e-03 
4.8009607e-01 4.2669603e-01 -1.5560325e-02 
4.7779629e-01 4.2430252e-01 -1.2606081e-02 
4.7791621e-01 4.2423365e-01 -7.0219683e-03 
4.7782451e-01 4.2414793e-01 -7.0944922e-03 
4.7729960e-01 4.2391920e-01 -1.6039342e-02 
4.7608596e-01 4.2247951e-01 -9.2127603e-03 
4.7560984e-01 4.2200997e-01 -9.3680341e-03 
4.8062852e-01 4.2732885e-01 -1.8453503e-02 
4.7498867e-01 4.2128199e-01 -6.1526112e-03 
4.7446597e-01 4.2106307e-01 -1.5264213e-02 
4.7740972e-01 4.2390847e-01 -1.2420351e-02 
4.7695482e-01 4.2355502e-01 -1.5470857e-02 
4.7343114e-01 4.1993958e-01 -1.2473636e-02 
4.7487867e-01 4.2126819e-01 -9.0058288e-03 
4.7308433e-01 4.1939366e-01 -6.6288244e-03 
4.7436544e-01 4.2096710e-01 -1.5477180e-02 
4.7126025e-01 4.1766241e-01 -9.2445444e-03 
4.7218546e-01 4.1850692e-01 -6.8764673e-03 
4.7161666e-01 4.1823900e-01 -1.5943188e-02 
4.6922016e-01 4.1554114e-01 -6.7762961e-03 
4.6903396e-01 4.1553292e-01 -1.2032083e-02 
4.6939501e-01 4.1569018e-01 -5.9681246e-03 
4.6882680e-01 4.1543022e-01 -1.5168396e-02 
4.7334605e-01 4.2004326e-01 -1.8309491e-02 
4.6774644e-01 4.1419861e-01 -1.0590837e-02 
4.6928883e-01 4.1568059e-01 -8.7369233e-03 
4.6873009e-01 4.1533577e-01 -1.5394210e-02 
4.6694437e-01 4.1335094e-01 -9.1233170e-03 
4.6663430e-01 4.1296417e-01 -6.6709458e-03 
4.6934783e-01 4.1597497e-01 -1.6030002e-02 
4.6941140e-01 4.1597500e-01 -1.4115121e-02 
4.6547717e-01 4.1179413e-01 -6.3979826e-03 
4.6602535e-01 4.1265032e-01 -1.5843630e-02 
4.6518227e-01 4.1170934e-01 -1.2615086e-02 
4.6783707e-01 4.1429904e-01 -1.0900971e-02 
4.6707478e-01 4.1367331e-01 -1.5089711e-02 
4.6388555e-01 4.1018900e-01 -5.7907058e-03 
4.6328905e-01 4.0989861e-01 -1.5059269e-02 
4.6266136e-01 4.0907317e-01 -9.0013174e-03 
4.6378440e-01 4.1017815e-01 -8.4755570e-03 
4.6319425e-01 4.0980753e-01 -1.5310468e-02 
4.6608517e-01 4.1278839e-01 -1.8156670e-02 
4.6072167e-01 4.0704429e-01 -6.1661988e-03 
4.6046576e-01 4.0700302e-01 -1.2539408e-02 
4.6116972e-01 4.0750334e-01 -6.4679156e-03 
4.6053320e-01 4.0717089e-01 -1.5745999e-02 
4.5840970e-01 4.0482900e-01 -8.8789715e-03 
4.6210700e-01 4.0874633e-01 -1.5883660e-02 
4.6216723e-01 4.0874436e-01 -1.3975342e-02 
4.5846391e-01 4.0477329e-01 -5.6098546e-03 
4.5784137e-01 4.0446606e-01 -1.4959641e-02 
4.5836580e-01 4.0476611e-01 -8.2196342e-03 
4.5591399e-01 4.0245664e-01 -1.2326310e-02 
4.5721698e-01 4.0384826e-01 -1.5322259e-02 
4.5797887e-01 4.0445405e-01 -1.0507510e-02 
4.5533350e-01 4.0166530e-01 -6.0053468e-03 
4.5578790e-01 4.0213183e-01 -6.2688696e-03 
4.5513222e-01 4.0178248e-01 -1.5641617e-02 
4.5418569e-01 4.0061685e-01 -8.7588765e-03 
4.5885319e-01 4.0556803e-01 -1.7997403e-02 
4.5284966e-01 3.9932489e-01 -1.0004606e-02 
4.5312071e-01 3.9944756e-01 -5.4378523e-03 
4.5484024e-01 4.0146527e-01 -1.4817482e-02 
4.5215371e-01 3.9868641e-01 -1.1576484e-02 
4.5248461e-01 3.9912093e-01 -1.4856081e-02 
4.5220640e-01 3.9856040e-01 -6.3031442e-03 
4.5302731e-01 3.9944011e-01 -7.9699429e-03 
4.5489165e-01 4.0154597e-01 -1.5731454e-02 
4.5495006e-01 4.0154219e-01 -1.3828550e-02 
4.5239529e-01 3.9903650e-01 -1.5137540e-02 
4.5037469e-01 3.9671695e-01 -5.6598531e-03 
4.4999382e-01 3.9643794e-01 -8.6413343e-03 
4.5048529e-01 3.9684653e-01 -6.0700150e-03 
4.4981843e-01 3.9648503e-01 -1.5538075e-02 
4.4866586e-01 3.9503500e-01 -6.2519652e-03 
4.4790596e-01 3.9445955e-01 -1.1677923e-02 
4.4785854e-01 3.9419904e-01 -5.2669407e-03 
4.4721243e-01 3.9386940e-01 -1.4752776e-02 
4.5164266e-01 3.9837676e-01 -1.7836977e-02 
4.4776750e-01 3.9419538e-01 -7.7267159e-03 
4.4583043e-01 3.9229012e-01 -8.5225664e-03 
4.4660878e-01 3.9327592e-01 -1.5138978e-02 
4.4505027e-01 3.9141634e-01 -5.6505501e-03 
4.4732931e-01 3.9384428e-01 -1.0436740e-02 
4.4526133e-01 3.9164066e-01 -5.8809840e-03 
4.4477814e-01 3.9125583e-01 -8.9320773e-03 
4.4400755e-01 3.9059600e-01 -1.2150980e-02 
4.4769651e-01 3.9437652e-01 -1.5576938e-02 
4.4458970e-01 3.9127639e-01 -1.5433440e-02 
4.4775254e-01 3.9437139e-01 -1.3680972e-02 
4.4267210e-01 3.8903639e-01 -5.1037911e-03 
4.4431934e-01 3.9097813e-01 -1.4528298e-02 