# vtk DataFile Version 4.0
vtk output
ASCII
DATASET UNSTRUCTURED_GRID
POINTS 4496 float
-4.3633327e-01 9.6409470e-01 4.4200001e+01 
-4.3633258e-01 9.6409065e-01 4.4074627e+01 
-3.2152572e-01 9.1279918e-01 4.4200001e+01 
-3.8534868e-01 8.4052670e-01 4.4200001e+01 
-3.9589554e-01 8.5545403e-01 4.4010014e+01 
-3.2616228e-01 9.1667932e-01 4.4011734e+01 
-4.3633190e-01 9.6408653e-01 4.3948376e+01 
-2.1293370e-01 8.4677851e-01 4.4200001e+01 
-2.9042658e-01 7.3813015e-01 4.4200001e+01 
-2.1010752e-01 8.4669363e-01 4.4073502e+01 
-2.8908840e-01 7.3604190e-01 4.4072292e+01 
-3.9589015e-01 8.5505831e-01 4.3883316e+01 
-3.2487559e-01 9.1697580e-01 4.3885036e+01 
-2.0722924e-01 8.4660655e-01 4.3944645e+01 
-1.1981077e-01 7.7773046e-01 4.4200001e+01 
-2.8772619e-01 7.3391593e-01 4.3942276e+01 
-4.3633121e-01 9.6408242e-01 4.3821228e+01 
-1.9739023e-01 6.6468561e-01 4.4200001e+01 
-2.9444304e-01 7.8727525e-01 4.3879974e+01 
-8.7554991e-02 7.5255024e-01 4.4042213e+01 
-1.6445170e-01 6.4084798e-01 4.4041008e+01 
-3.2357255e-01 9.1726828e-01 4.3757431e+01 
-3.9587301e-01 8.5463828e-01 4.3755711e+01 
-2.0429766e-01 8.4651643e-01 4.3813354e+01 
-2.8633916e-01 7.3175091e-01 4.3809875e+01 
-2.6899619e-02 6.8901783e-01 4.4200001e+01 
-1.0567340e-01 7.7152997e-01 4.3875790e+01 
-4.3633053e-01 9.6407831e-01 4.3693161e+01 
-8.7133333e-02 5.9509218e-01 4.4200001e+01 
-1.8777622e-01 6.5475601e-01 4.3873402e+01 
-2.0131156e-01 8.4642249e-01 4.3679543e+01 
-3.2225290e-01 9.1755641e-01 4.3628902e+01 
-3.9584404e-01 8.5419410e-01 4.3627178e+01 
-1.0114321e-03 6.6670936e-01 4.3939713e+01 
-2.8492665e-01 7.2954547e-01 4.3675007e+01 
-1.0131179e-01 7.7015632e-01 4.3743176e+01 
-6.0682178e-02 5.7631296e-01 4.3938457e+01 
3.9444737e-02 6.2338209e-01 4.4053139e+01 
-1.8470748e-01 6.5131217e-01 4.3739727e+01 
-7.0938184e-03 5.4737431e-01 4.4052326e+01 
-4.3632981e-01 9.6407413e-01 4.3564159e+01 
7.6947339e-02 5.8804804e-01 4.4200001e+01 
-1.2721874e-02 6.8194175e-01 4.3817982e+01 
-7.7214435e-02 5.8474159e-01 4.3819649e+01 
4.0195532e-02 5.2425718e-01 4.4200001e+01 
-1.9826968e-01 8.4632379e-01 4.3543118e+01 
-9.6842363e-02 7.6872379e-01 4.3607994e+01 
-3.2091641e-01 9.1783977e-01 4.3499420e+01 
-3.9580306e-01 8.5372573e-01 4.3497700e+01 
-2.8348783e-01 7.2729832e-01 4.3537586e+01 
-1.8155001e-01 6.4778340e-01 4.3603539e+01 
1.5678726e-01 5.2239102e-01 4.4060219e+01 
1.0298219e-02 6.6009766e-01 4.3674484e+01 
1.3250886e-01 4.7546524e-01 4.4058990e+01 
-4.3632913e-01 9.6407002e-01 4.3434200e+01 
-5.0139543e-02 5.6696451e-01 4.3671154e+01 
1.3504514e-01 5.4209155e-01 4.3856747e+01 
1.0361936e-01 4.8715758e-01 4.3855240e+01 
2.0846681e-01 4.8028421e-01 4.4200001e+01 
1.9279444e-01 4.4799727e-01 4.4200001e+01 
-9.2261828e-02 7.6722860e-01 4.3470158e+01 
-1.4701239e-03 6.7547697e-01 4.3552124e+01 
-1.9517080e-01 8.4621930e-01 4.3403992e+01 
-3.1956279e-01 9.1811794e-01 4.3368977e+01 
-3.9574999e-01 8.5323322e-01 4.3367252e+01 
-1.7830023e-01 6.4416617e-01 4.3464752e+01 
-6.7131944e-02 5.7555372e-01 4.3547829e+01 
-2.8202194e-01 7.2500783e-01 4.3397518e+01 
-4.3632844e-01 9.6406585e-01 4.3303261e+01 
1.5138821e-01 5.3037512e-01 4.3609200e+01 
1.2119007e-01 4.7490793e-01 4.3606068e+01 
-8.7566733e-02 7.6566672e-01 4.3329563e+01 
-1.7495437e-01 6.4045686e-01 4.3323273e+01 
-3.1819177e-01 9.1839045e-01 4.3237537e+01 
-3.9568463e-01 8.5271639e-01 4.3235813e+01 
2.2269404e-02 6.5294570e-01 4.3398811e+01 
-1.9201367e-01 8.4610778e-01 4.3262066e+01 
-3.8899176e-02 5.5709696e-01 4.3393635e+01 
-2.8052819e-01 7.2267252e-01 4.3254715e+01 
3.7877345e-01 3.8273901e-01 4.4200001e+01 
-4.3632776e-01 9.6406174e-01 4.3171322e+01 
3.9241230e-01 3.7329337e-01 4.3965439e+01 
1.0283732e-02 6.6872352e-01 4.3271511e+01 
-5.6385640e-02 5.6585240e-01 4.3265472e+01 
-8.2753494e-02 7.6403379e-01 4.3186119e+01 
-4.0345609e-01 8.6371827e-01 4.3104889e+01 
-3.1680310e-01 9.1865683e-01 4.3105087e+01 
-1.7150842e-01 6.3665158e-01 4.3179005e+01 
-1.8879703e-01 8.4598809e-01 4.3117241e+01 
-2.7900568e-01 7.2029078e-01 4.3109074e+01 
4.0610775e-01 3.6380205e-01 4.3729839e+01 
1.6776134e-01 5.1882964e-01 4.3331150e+01 
-4.3632707e-01 9.6405768e-01 4.3038357e+01 
1.4031014e-01 4.6124566e-01 4.3307755e+01 
3.4952711e-02 6.4519531e-01 4.3111935e+01 
-7.7818394e-02 7.6232505e-01 4.3039719e+01 
-3.1539652e-01 9.1891652e-01 4.2971603e+01 
-3.9551663e-01 8.5160977e-01 4.2969879e+01 
-2.6899155e-02 5.4666573e-01 4.3105160e+01 
-1.6795819e-01 6.3274628e-01 4.3031849e+01 
-1.8551964e-01 8.4585863e-01 4.2969406e+01 
4.1985780e-01 3.5425979e-01 4.3493168e+01 
-2.7745360e-01 7.1786088e-01 4.2960495e+01 
-4.3632638e-01 9.6405357e-01 4.2904346e+01 
2.2723136e-02 6.6139150e-01 4.2979332e+01 
-4.4916678e-02 5.5559248e-01 4.2971806e+01 
-3.1397179e-01 9.1916907e-01 4.2837063e+01 
-3.9541367e-01 8.5101974e-01 4.2835335e+01 
-7.2757579e-02 7.6053542e-01 4.2890255e+01 
-1.6429928e-01 6.2873662e-01 4.2881699e+01 
1.8463810e-01 5.0694346e-01 4.3035332e+01 
-1.8218029e-01 8.4571803e-01 4.2818455e+01 
1.5503895e-01 4.5003417e-01 4.3027725e+01 
-2.7587104e-01 7.1538109e-01 4.2808868e+01 
4.3366045e-01 3.4466109e-01 4.3255390e+01 
-4.3632573e-01 9.6404958e-01 4.2769268e+01 
-3.8429454e-01 8.3484912e-01 4.2710606e+01 
-3.1252861e-01 9.1941386e-01 4.2701439e+01 
4.8404284e-02 6.3678014e-01 4.2813030e+01 
-1.4070326e-02 5.3562075e-01 4.2804932e+01 
-6.7567028e-02 7.5865942e-01 4.2737610e+01 
-1.6052702e-01 6.2461799e-01 4.2728443e+01 
-1.7877772e-01 8.4556442e-01 4.2664265e+01 
-4.3632504e-01 9.6404558e-01 4.2633099e+01 
-2.7425703e-01 7.1284944e-01 4.2654083e+01 
4.4751364e-01 3.3500037e-01 4.3016472e+01 
3.5901129e-02 6.5341437e-01 4.2674721e+01 
-3.7959340e-01 8.2794034e-01 4.2568317e+01 
-3.1106678e-01 9.1965032e-01 4.2564713e+01 
-3.2659348e-02 5.4472327e-01 4.2665997e+01 
2.0396979e-01 4.9291667e-01 4.2740131e+01 
-6.2242586e-02 7.5669110e-01 4.2581669e+01 
1.7765003e-01 4.3475360e-01 4.2732578e+01 
-1.5663649e-01 6.2038553e-01 4.2571964e+01 
-4.3632439e-01 9.6404165e-01 4.2495808e+01 
-1.7531081e-01 8.4539592e-01 4.2506718e+01 
-2.7261066e-01 7.1026409e-01 4.2496017e+01 
-3.0958602e-01 9.1987789e-01 4.2426853e+01 
-3.7859210e-01 8.2613736e-01 4.2421188e+01 
4.6141517e-01 3.2527190e-01 4.2776375e+01 
6.2686495e-02 6.2762415e-01 4.2501175e+01 
-3.3570320e-04 5.2390522e-01 4.2492062e+01 
-5.6779940e-02 7.5462401e-01 4.2422298e+01 
-4.3632373e-01 9.6403772e-01 4.2357380e+01 
-1.5262254e-01 6.1603409e-01 4.2412144e+01 
-1.7177837e-01 8.4521037e-01 4.2345684e+01 
-2.7093092e-01 7.0762289e-01 4.2334549e+01 
-3.0808610e-01 9.2009580e-01 4.2287842e+01 
-3.8275370e-01 8.3137155e-01 4.2275047e+01 
4.9876589e-02 6.4471585e-01 4.2356720e+01 
-1.9539909e-02 5.3318781e-01 4.2347118e+01 
-4.3632311e-01 9.6403396e-01 4.2217781e+01 
2.1959943e-01 4.8236796e-01 4.2385345e+01 
-5.1174615e-02 7.5245124e-01 4.2259373e+01 
1.9034323e-01 4.2346162e-01 4.2378918e+01 
-1.4847966e-01 6.1155808e-01 4.2248856e+01 
4.7536272e-01 3.1546980e-01 4.2535065e+01 
-1.6817927e-01 8.4500539e-01 4.2181026e+01 
-2.6921678e-01 7.0492369e-01 4.2169544e+01 
-3.0656675e-01 9.2030340e-01 4.2147648e+01 
-3.9470181e-01 8.4769493e-01 4.2145920e+01 
7.7868804e-02 6.1763972e-01 4.2175373e+01 
-4.3632248e-01 9.6403021e-01 4.2076988e+01 
1.4390758e-02 5.1145434e-01 4.2165581e+01 
-4.5421973e-02 7.5016522e-01 4.2092751e+01 
-1.4420210e-01 6.0695171e-01 4.2081959e+01 
-3.0502778e-01 9.2049998e-01 4.2006248e+01 
-4.0175444e-01 8.5747409e-01 4.2004128e+01 
-1.6451253e-01 8.4477836e-01 4.2012604e+01 
4.8935395e-01 3.0558801e-01 4.2292507e+01 
-2.6746723e-01 7.0216429e-01 4.2000870e+01 
6.4714879e-02 6.3520777e-01 4.2024277e+01 
-4.3632188e-01 9.6402657e-01 4.1934975e+01 
-5.4755262e-03 5.2092212e-01 4.2014156e+01 
-2.3078828e-01 8.1064087e-01 4.1931458e+01 
2.3550548e-01 4.7116494e-01 4.2073269e+01 
2.0610523e-01 4.1123796e-01 4.2066772e+01 
-3.9517213e-02 7.4775779e-01 4.1922287e+01 
-1.3978374e-01 6.0220873e-01 4.1911320e+01 
-3.0346894e-01 9.2068475e-01 4.1863613e+01 
-3.9432141e-01 8.4618556e-01 4.1861881e+01 
-1.6077711e-01 8.4452641e-01 4.1840263e+01 
-2.6568118e-01 6.9934219e-01 4.1828377e+01 
-4.3632129e-01 9.6402299e-01 4.1791718e+01 
5.0338638e-01 2.9562023e-01 4.2048656e+01 
9.4028555e-02 6.0672593e-01 4.1834507e+01 
3.0205652e-02 4.9819478e-01 4.1824417e+01 
-3.8116732e-01 8.2744831e-01 4.1725647e+01 
-3.0189002e-01 9.2085695e-01 4.1719719e+01 
-3.3455357e-02 7.4522001e-01 4.1747829e+01 
-1.3521814e-01 5.9732240e-01 4.1736786e+01 
-4.3632072e-01 9.6401960e-01 4.1647179e+01 
-1.5697217e-01 8.4424627e-01 4.1663853e+01 
-2.6385748e-01 6.9645494e-01 4.1651920e+01 
8.0488607e-02 6.2478805e-01 4.1676235e+01 
2.6870471e-01 4.4547972e-01 4.1752304e+01 
9.6269641e-03 5.0785345e-01 4.1665993e+01 
2.4764967e-01 3.8646612e-01 4.1743168e+01 
-3.0029076e-01 9.2101562e-01 4.1574532e+01 
-3.9388368e-01 8.4456980e-01 4.1572796e+01 
5.1745731e-01 2.8556010e-01 4.1803486e+01 
-2.7231261e-02 7.4254233e-01 4.1569210e+01 
-1.3049847e-01 5.9228569e-01 4.1558201e+01 
-4.3632016e-01 9.6401632e-01 4.1501339e+01 
-1.5309690e-01 8.4393430e-01 4.1483204e+01 
-2.6199502e-01 6.9349992e-01 4.1471333e+01 
-2.9867104e-01 9.2115986e-01 4.1428024e+01 
-3.9364263e-01 8.4372103e-01 4.1426289e+01 
1.1125199e-01 5.9476525e-01 4.1477348e+01 
4.7217656e-02 4.8404291e-01 4.1467384e+01 
-4.3631962e-01 9.6401310e-01 4.1354160e+01 
-2.0839609e-02 7.3971421e-01 4.1386261e+01 
-1.2561750e-01 5.8709091e-01 4.1375404e+01 
5.3156406e-01 2.7540097e-01 4.1556946e+01 
-1.4915068e-01 8.4358656e-01 4.1298138e+01 
-2.9703063e-01 9.2128879e-01 4.1280167e+01 
-3.9338648e-01 8.4284443e-01 4.1278431e+01 
-2.6009262e-01 6.9047421e-01 4.1286449e+01 
2.9365057e-01 4.2687622e-01 4.1391586e+01 
9.7278498e-02 6.1333776e-01 4.1311302e+01 
2.7470219e-01 3.6807936e-01 4.1382729e+01 
2.5872495e-02 4.9389899e-01 4.1301384e+01 
-4.3631911e-01 9.6401012e-01 4.1205620e+01 
-1.4274905e-02 7.3672432e-01 4.1198803e+01 
-1.2056758e-01 5.8173001e-01 4.1188221e+01 
-2.9536936e-01 9.2140132e-01 4.1130928e+01 
[...]
POINT_DATA 4496
FIELD FieldData 5
DISPLACEMENT 3 4496  float
6.1849802e-05 7.6199634e-05 -1.3861353e-06 
6.1339022e-05 7.5480311e-05 -1.3860641e-06 
6.3042506e-05 7.8869329e-05 -1.5598670e-06 
6.4723099e-05 7.7385193e-05 -8.8493539e-07 
6.3601641e-05 7.6050048e-05 -9.2771870e-07 
6.2185114e-05 7.7681128e-05 -1.5631134e-06 
6.0825278e-05 7.4756987e-05 -1.3859160e-06 
6.4577958e-05 8.1395250e-05 -1.6240767e-06 
6.7104702e-05 7.9592872e-05 -6.8413362e-07 
6.4063926e-05 8.0734571e-05 -1.6350575e-06 
6.6632172e-05 7.8890698e-05 -6.7754729e-07 
6.3094943e-05 7.5324264e-05 -9.2542751e-07 
6.1662649e-05 7.6984681e-05 -1.5700658e-06 
6.3540756e-05 8.0061218e-05 -1.6460745e-06 
6.6184031e-05 8.3561645e-05 -1.6080418e-06 
6.6150948e-05 7.8176541e-05 -6.7119703e-07 
6.0308685e-05 7.4029544e-05 -1.3856994e-06 
6.8813359e-05 8.1757302e-05 -6.4195171e-07 
6.4656648e-05 7.7663040e-05 -9.5010620e-07 
6.6125605e-05 8.3405255e-05 -1.5951930e-06 
6.8718284e-05 8.1609644e-05 -6.3944231e-07 
6.1137864e-05 7.6284385e-05 -1.5760533e-06 
6.2585539e-05 7.4594915e-05 -9.2356373e-07 
6.3008345e-05 7.9375764e-05 -1.6572220e-06 
6.5661035e-05 7.7449760e-05 -6.6471165e-07 
6.8247929e-05 8.5724023e-05 -1.4782402e-06 
6.5005450e-05 8.2026767e-05 -1.6297611e-06 
5.9790877e-05 7.3298281e-05 -1.3851616e-06 
7.0433241e-05 8.4322957e-05 -6.9172586e-07 
6.7709661e-05 8.0104503e-05 -6.2439085e-07 
6.2467007e-05 7.8677891e-05 -1.6682432e-06 
6.0610761e-05 7.5580181e-05 -1.5825598e-06 
6.2074483e-05 7.3862655e-05 -9.2224190e-07 
6.7703273e-05 8.4828047e-05 -1.4559861e-06 
6.5162058e-05 7.6710559e-05 -6.5848212e-07 
6.4497028e-05 8.1365790e-05 -1.6392357e-06 
6.9799826e-05 8.3433304e-05 -6.9156823e-07 
6.9174639e-05 8.6422988e-05 -1.3723162e-06 
6.7242814e-05 7.9408630e-05 -6.1760232e-07 
7.0939757e-05 8.5335661e-05 -7.4379665e-07 
5.9269845e-05 7.2565068e-05 -1.3848822e-06 
7.0598056e-05 8.8142617e-05 -1.3222948e-06 
6.6851615e-05 8.3854429e-05 -1.4956172e-06 
6.9117101e-05 8.2365368e-05 -6.7264455e-07 
7.2083123e-05 8.7287321e-05 -8.0391010e-07 
6.1916006e-05 7.7966877e-05 -1.6791705e-06 
6.3980136e-05 8.0692836e-05 -1.6485316e-06 
6.0081566e-05 7.4873278e-05 -1.5884114e-06 
6.1561157e-05 7.3126816e-05 -9.1972993e-07 
6.4655098e-05 7.5959018e-05 -6.5236435e-07 
6.6768305e-05 7.8701043e-05 -6.1067442e-07 
7.1553732e-05 8.9195251e-05 -1.2711646e-06 
6.6772533e-05 8.3562263e-05 -1.4641539e-06 
7.2640731e-05 8.8623085e-05 -9.0029187e-07 
5.8747602e-05 7.1826857e-05 -1.3840804e-06 
6.8921188e-05 8.2139806e-05 -6.8125303e-07 
7.0260685e-05 8.7513283e-05 -1.2959503e-06 
7.1531394e-05 8.6774067e-05 -8.4910840e-07 
7.3107964e-05 9.1207068e-05 -1.2400552e-06 
7.3859737e-05 9.0842208e-05 -9.8854525e-07 
6.3455045e-05 8.0007747e-05 -1.6580656e-06 
6.5916443e-05 8.2584644e-05 -1.5036909e-06 
6.1356135e-05 7.7243894e-05 -1.6902595e-06 
5.9549686e-05 7.4162381e-05 -1.5948741e-06 
6.1046107e-05 7.2388299e-05 -9.1828463e-07 
6.6285691e-05 7.7982309e-05 -6.0447195e-07 
6.8216250e-05 8.1036742e-05 -6.6233571e-07 
6.4138556e-05 7.5194577e-05 -6.4669672e-07 
5.8222675e-05 7.1086593e-05 -1.3838721e-06 
6.9516667e-05 8.6460161e-05 -1.2953800e-06 
7.0790542e-05 8.5741587e-05 -8.5008179e-07 
6.2921652e-05 7.9311176e-05 -1.6666698e-06 
6.5794513e-05 7.7251309e-05 -5.9783810e-07 
5.9016904e-05 7.3449679e-05 -1.6004536e-06 
6.0530037e-05 7.1647162e-05 -9.1717664e-07 
6.5813641e-05 8.2252460e-05 -1.4708920e-06 
6.0787024e-05 7.6507422e-05 -1.7007932e-06 
6.8012851e-05 8.0805286e-05 -6.7141883e-07 
6.3613363e-05 7.4417483e-05 -6.4113198e-07 
7.5380041e-05 9.5174139e-05 -1.3748587e-06 
5.7695983e-05 7.0342750e-05 -1.3839308e-06 
7.4633783e-05 9.4129398e-05 -1.3760562e-06 
6.4930740e-05 8.1243437e-05 -1.5112404e-06 
6.7285589e-05 7.9666068e-05 -6.5210429e-07 
6.2380423e-05 7.8602112e-05 -1.6754368e-06 
5.9749651e-05 7.0729111e-05 -9.5015196e-07 
5.8480324e-05 7.2731964e-05 -1.6069371e-06 
6.5296408e-05 7.6509670e-05 -5.9194161e-07 
6.0209190e-05 7.5759301e-05 -1.7112272e-06 
6.3081061e-05 7.3628951e-05 -6.3497669e-07 
7.3881121e-05 9.3076080e-05 -1.3768559e-06 
6.8642636e-05 8.5230946e-05 -1.2954298e-06 
5.7166981e-05 6.9597474e-05 -1.3841075e-06 
6.9878748e-05 8.4460669e-05 -8.4973891e-07 
6.4826854e-05 8.0897466e-05 -1.4762742e-06 
6.1831197e-05 7.7881501e-05 -1.6833885e-06 
5.7945472e-05 7.2013616e-05 -1.6117493e-06 
5.9491129e-05 7.0155162e-05 -9.1420276e-07 
6.7074616e-05 7.9429563e-05 -6.6200079e-07 
6.4789136e-05 7.5755648e-05 -5.8557930e-07 
5.9622231e-05 7.4997246e-05 -1.7210023e-06 
7.3122465e-05 9.2009752e-05 -1.3772055e-06 
6.2538464e-05 7.2826748e-05 -6.3010089e-07 
5.6639659e-05 6.8847745e-05 -1.3831344e-06 
6.3917214e-05 7.9856392e-05 -1.5171876e-06 
6.6325112e-05 7.8253870e-05 -6.4284774e-07 
5.7408179e-05 7.1292205e-05 -1.6182474e-06 
5.8971546e-05 6.9407091e-05 -9.1389717e-07 
6.1274106e-05 7.7148223e-05 -1.6913782e-06 
6.4275475e-05 7.4991491e-05 -5.8061102e-07 
6.7705987e-05 8.3910963e-05 -1.2951451e-06 
5.9025962e-05 7.4221651e-05 -1.7303020e-06 
6.8986963e-05 8.3184765e-05 -8.4567012e-07 
6.1989427e-05 7.2014394e-05 -6.2630687e-07 
7.2359908e-05 9.0938374e-05 -1.3794798e-06 
5.6108634e-05 6.8099856e-05 -1.3827081e-06 
5.8850364e-05 6.8971254e-05 -8.6819142e-07 
5.6871064e-05 7.0571288e-05 -1.6221923e-06 
6.3813532e-05 7.9498524e-05 -1.4800495e-06 
6.6107335e-05 7.8014658e-05 -6.5422893e-07 
6.0708298e-05 7.6404038e-05 -1.6987492e-06 
6.3752668e-05 7.4215728e-05 -5.7471578e-07 
5.8422891e-05 7.3436713e-05 -1.7390951e-06 
5.5578792e-05 6.7349378e-05 -1.3816212e-06 
6.1430830e-05 7.1186514e-05 -6.2195147e-07 
7.1592061e-05 8.9857189e-05 -1.3790769e-06 
6.2877254e-05 7.8425735e-05 -1.5214162e-06 
5.8451511e-05 6.8294081e-05 -8.4880190e-07 
5.6334044e-05 6.9847469e-05 -1.6245807e-06 
6.5335720e-05 7.6802717e-05 -6.3517507e-07 
6.6824636e-05 8.2655410e-05 -1.2919855e-06 
6.0137972e-05 7.5648488e-05 -1.7067122e-06 
6.8128611e-05 8.2008017e-05 -8.5098952e-07 
6.3224310e-05 7.3429866e-05 -5.7287230e-07 
5.5050405e-05 6.6596796e-05 -1.3788570e-06 
5.7810150e-05 7.2638970e-05 -1.7488760e-06 
6.0864313e-05 7.0350354e-05 -6.1887732e-07 
5.5795172e-05 6.9123664e-05 -1.6294462e-06 
5.7919893e-05 6.7513873e-05 -8.4628624e-07 
7.0826136e-05 8.8777851e-05 -1.3772491e-06 
6.2776526e-05 7.8057732e-05 -1.4809153e-06 
6.5113731e-05 7.6562981e-05 -6.4712901e-07 
5.9559832e-05 7.4882642e-05 -1.7110880e-06 
5.4520289e-05 6.5847067e-05 -1.3780771e-06 
6.2687708e-05 7.2633396e-05 -5.6908459e-07 
5.7190700e-05 7.1829636e-05 -1.7562552e-06 
6.0290760e-05 6.9503440e-05 -6.1615248e-07 
5.5259141e-05 6.8401088e-05 -1.6329302e-06 
5.7236823e-05 6.6628323e-05 -8.6295415e-07 
6.1814928e-05 7.6952216e-05 -1.5223125e-06 
6.4323518e-05 7.5315809e-05 -6.2811813e-07 
5.3992535e-05 6.5098968e-05 -1.3769215e-06 
6.5633933e-05 8.0988000e-05 -1.2925175e-06 
5.8976104e-05 7.4107324e-05 -1.7148999e-06 
6.6952547e-05 8.0284037e-05 -8.4142812e-07 
6.2145489e-05 7.1829774e-05 -5.6640488e-07 
7.0058028e-05 8.7692613e-05 -1.3740799e-06 
5.6564299e-05 7.1009621e-05 -1.7632127e-06 
5.9709429e-05 6.8645852e-05 -6.1410742e-07 
5.4726410e-05 6.7681707e-05 -1.6351117e-06 
5.6374509e-05 6.5666027e-05 -9.0949436e-07 
6.1721570e-05 7.6581855e-05 -1.4792992e-06 
5.3465970e-05 6.4350032e-05 -1.3764724e-06 
6.4099513e-05 7.5081967e-05 -6.4435051e-07 
5.8387377e-05 7.3322968e-05 -1.7182954e-06 
6.1600600e-05 7.1017472e-05 -5.6297148e-07 
5.4189099e-05 6.6957400e-05 -1.6406863e-06 
5.5613556e-05 6.4750056e-05 -9.3912183e-07 
5.5931316e-05 7.0179573e-05 -1.7694880e-06 
6.9292320e-05 8.6605607e-05 -1.3707653e-06 
5.9126221e-05 6.7782043e-05 -6.1095432e-07 
6.0737624e-05 7.5448806e-05 -1.5201846e-06 
5.2934094e-05 6.3599648e-05 -1.3769384e-06 
6.3292195e-05 7.3802526e-05 -6.2508059e-07 
5.6402183e-05 6.8242596e-05 -1.3319052e-06 
6.4649983e-05 7.9595105e-05 -1.2898453e-06 
6.5984270e-05 7.8892001e-05 -8.3991324e-07 
5.7794856e-05 7.2532246e-05 -1.7218615e-06 
6.1050087e-05 7.0199334e-05 -5.6001653e-07 
5.3651740e-05 6.6232402e-05 -1.6435924e-06 
5.5332930e-05 6.4164444e-05 -9.1021411e-07 
5.5291821e-05 6.9343536e-05 -1.7764206e-06 
5.8537924e-05 6.6905304e-05 -6.0892950e-07 
5.2406074e-05 6.2848143e-05 -1.3750112e-06 
6.8534799e-05 8.5528787e-05 -1.3678311e-06 
6.0654002e-05 7.5077165e-05 -1.4753631e-06 
6.3069070e-05 7.3577634e-05 -6.4334461e-07 
5.5254677e-05 6.3749983e-05 -8.5980628e-07 
5.3121388e-05 6.5513414e-05 -1.6440304e-06 
5.7196125e-05 7.1729643e-05 -1.7247821e-06 
6.0493679e-05 6.9370290e-05 -5.5686792e-07 
5.1883162e-05 6.2098217e-05 -1.3714604e-06 
5.4647604e-05 6.8493937e-05 -1.7826690e-06 
5.7939054e-05 6.6018729e-05 -6.0909781e-07 
5.9647158e-05 7.3916250e-05 -1.5148463e-06 
6.3978281e-05 7.8569647e-05 -1.2732859e-06 
6.2242201e-05 7.2263843e-05 -6.2456718e-07 
6.5273016e-05 7.8044046e-05 -8.6908886e-07 
5.2589916e-05 6.4794163e-05 -1.6473896e-06 
5.4308872e-05 6.2675921e-05 -9.0841866e-07 
6.7792782e-05 8.4471445e-05 -1.3629390e-06 
5.6594246e-05 7.0918490e-05 -1.7270892e-06 
5.9934744e-05 6.8536749e-05 -5.5815570e-07 
5.1362098e-05 6.1356106e-05 -1.3697675e-06 
5.3997228e-05 6.7636094e-05 -1.7854943e-06 
5.7336922e-05 6.5127017e-05 -6.1146989e-07 
5.2065061e-05 6.4079213e-05 -1.6478954e-06 
5.3799457e-05 6.1938910e-05 -9.1147876e-07 
5.9576825e-05 7.3544543e-05 -1.4668570e-06 
6.2025880e-05 7.2054594e-05 -6.4215715e-07 
5.0841332e-05 6.0619874e-05 -1.3696280e-06 
5.5989378e-05 7.0102185e-05 -1.7262239e-06 
5.9371949e-05 6.7696710e-05 -5.5649087e-07 
6.7054345e-05 8.3413193e-05 -1.3541186e-06 
5.3343349e-05 6.6773078e-05 -1.7868190e-06 
5.1541352e-05 6.3370899e-05 -1.6477870e-06 
5.3291355e-05 6.1202336e-05 -9.1010037e-07 
5.6732890e-05 6.4227257e-05 -6.0952601e-07 
6.3019084e-05 7.7174212e-05 -1.2618450e-06 
5.8550580e-05 7.2355200e-05 -1.5074598e-06 
6.4301836e-05 7.6703138e-05 -8.7635817e-07 
6.1186431e-05 7.0708527e-05 -6.2304406e-07 
5.0327428e-05 5.9878617e-05 -1.3678698e-06 
5.5384917e-05 6.9280468e-05 -1.7273909e-06 
5.8804057e-05 6.6850538e-05 -5.5592130e-07 
5.1020812e-05 6.2658553e-05 -1.6503625e-06 
5.2790620e-05 6.0468949e-05 -9.1288166e-07 
5.2688130e-05 6.5899760e-05 -1.7920386e-06 
5.6124085e-05 6.3323736e-05 -6.1213518e-07 
6.6328474e-05 8.2368191e-05 -1.3468511e-06 
4.9812792e-05 5.9147904e-05 -1.3674577e-06 
5.8498670e-05 7.1990878e-05 -1.4562653e-06 
6.0973045e-05 7.0511938e-05 -6.4544889e-07 
5.0503550e-05 6.1954219e-05 -1.6525850e-06 
5.2289939e-05 5.9739719e-05 -9.1292583e-07 
5.4775635e-05 6.8447320e-05 -1.7253346e-06 
5.8238398e-05 6.6002416e-05 -5.5798466e-07 
4.9306742e-05 5.8414997e-05 -1.3654483e-06 
5.2030413e-05 6.5021937e-05 -1.7903786e-06 
5.5510296e-05 6.2411287e-05 -6.1261824e-07 
6.2063729e-05 7.5768876e-05 -1.2502361e-06 
6.3330066e-05 7.5355907e-05 -8.8227205e-07 
5.7959678e-05 7.1204922e-05 -1.4452348e-06 
6.5622247e-05 8.1344115e-05 -1.3391107e-06 
4.9994691e-05 6.1252242e-05 -1.6510825e-06 
5.1797280e-05 5.9018446e-05 -9.1866139e-07 
6.0443468e-05 6.9741669e-05 -6.4475773e-07 
5.4170923e-05 6.7615605e-05 -1.7217923e-06 
5.7668403e-05 6.5147775e-05 -5.6046576e-07 
4.8801005e-05 5.7696132e-05 -1.3648529e-06 
5.1366846e-05 6.4135449e-05 -1.7908665e-06 
5.4903030e-05 6.1497383e-05 -6.1666452e-07 
4.9489110e-05 6.0564311e-05 -1.6485633e-06 
5.1306153e-05 5.8301568e-05 -9.1838376e-07 
5.7425714e-05 7.0418428e-05 -1.4369725e-06 
5.3389271e-05 6.1861581e-05 -1.0062073e-06 
5.9919566e-05 6.8971531e-05 -6.5038631e-07 
4.8303093e-05 5.6974783e-05 -1.3611377e-06 
6.4919062e-05 8.0314174e-05 -1.3285954e-06 
6.0972579e-05 7.4230542e-05 -1.2479363e-06 
5.3566324e-05 6.6779459e-05 -1.7118425e-06 
6.2238585e-05 7.3602496e-05 -8.5436045e-07 
5.7103269e-05 6.4300286e-05 -5.6317424e-07 
4.8985839e-05 5.9871032e-05 -1.6430203e-06 
5.0819875e-05 5.7589205e-05 -9.2041523e-07 
5.0716881e-05 6.3256608e-05 -1.7828052e-06 
5.4289532e-05 6.0586772e-05 -6.2684944e-07 
4.7809484e-05 5.6268535e-05 -1.3607639e-06 
5.6897992e-05 6.9635833e-05 -1.4310616e-06 
5.9396883e-05 6.8203182e-05 -6.5227954e-07 
5.2968255e-05 6.5946297e-05 -1.7076040e-06 
4.8495465e-05 5.9191436e-05 -1.6404940e-06 
5.0345854e-05 5.6888624e-05 -9.2289247e-07 
5.6537036e-05 6.3450461e-05 -5.6356185e-07 
6.4227497e-05 7.9312122e-05 -1.3237984e-06 
5.0059647e-05 6.2371546e-05 -1.7831342e-06 
4.7324622e-05 5.5566998e-05 -1.3584464e-06 
6.2171370e-05 7.3940842e-05 -9.3280909e-07 
6.1330953e-05 7.4540891e-05 -1.2171575e-06 
5.3680320e-05 5.9673468e-05 -6.2788456e-07 
5.6375215e-05 6.8856076e-05 -1.4189044e-06 
5.8875477e-05 6.7435598e-05 -6.5823394e-07 
4.8008089e-05 5.8517446e-05 -1.6395416e-06 
4.9873830e-05 5.6194327e-05 -9.2566410e-07 
5.2371532e-05 6.5109372e-05 -1.7022888e-06 
5.5977995e-05 6.2601604e-05 -5.6779783e-07 
4.6841720e-05 5.4870325e-05 -1.3556088e-06 
6.3559601e-05 7.8321624e-05 -1.3076809e-06 
4.9401766e-05 6.1481376e-05 -1.7825824e-06 
5.3073029e-05 5.8756686e-05 -6.3034639e-07 
4.7520960e-05 5.7847617e-05 -1.6382565e-06 
4.9400172e-05 5.5502442e-05 -9.2874080e-07 
6.1522725e-05 7.2979303e-05 -9.2975040e-07 
6.0685390e-05 7.3586445e-05 -1.2085890e-06 
5.5820437e-05 6.8037756e-05 -1.4060181e-06 
5.8314188e-05 6.6598252e-05 -6.6186357e-07 
5.0610350e-05 5.8947193e-05 -1.1651115e-06 
4.6367924e-05 5.4180146e-05 -1.3518400e-06 
5.1731608e-05 6.4230946e-05 -1.6971284e-06 
5.5362125e-05 6.1668645e-05 -5.7675692e-07 
4.7030735e-05 5.7138364e-05 -1.6285645e-06 
4.8906510e-05 5.4805147e-05 -9.3959864e-07 
4.8766233e-05 6.0609371e-05 -1.7702745e-06 
6.2914856e-05 7.7359829e-05 -1.2904649e-06 
5.2480711e-05 5.7870948e-05 -6.4106962e-07 
4.5907447e-05 5.3521486e-05 -1.3524290e-06 
5.5091303e-05 6.7056069e-05 -1.4081554e-06 
5.7646437e-05 6.5545450e-05 -6.5688067e-07 
6.0908376e-05 7.2067865e-05 -9.2384607e-07 
6.0076138e-05 7.2676594e-05 -1.1954463e-06 
4.9939190e-05 5.7996876e-05 -1.1693088e-06 
4.6561916e-05 5.6459863e-05 -1.6170816e-06 
5.1042793e-05 6.3306892e-05 -1.6912911e-06 
4.8427530e-05 5.4126303e-05 -9.4562358e-07 
5.4742646e-05 6.0726390e-05 -5.8255631e-07 
4.5468809e-05 5.2872841e-05 -1.3471710e-06 
4.8167942e-05 5.9782014e-05 -1.7611324e-06 
5.1918509e-05 5.7029396e-05 -6.5088847e-07 
6.2291438e-05 7.6419019e-05 -1.2742399e-06 
5.4336968e-05 6.6077380e-05 -1.4192894e-06 
5.7003188e-05 6.4524524e-05 -6.5503150e-07 
4.6099201e-05 5.5790839e-05 -1.6138922e-06 
4.7961985e-05 5.3468739e-05 -9.5361361e-07 
5.8316466e-05 7.0303075e-05 -1.2113967e-06 
5.9569284e-05 6.9624242e-05 -8.4823665e-07 
5.0390521e-05 6.2428357e-05 -1.6876313e-06 
5.4150980e-05 5.9818300e-05 -5.8599278e-07 
4.9179569e-05 5.6896512e-05 -1.1668184e-06 
4.5040171e-05 5.2249507e-05 -1.3468725e-06 
5.1384141e-05 5.6218174e-05 -6.5582071e-07 
4.7591846e-05 5.8982543e-05 -1.7514499e-06 
4.5659683e-05 5.5143078e-05 -1.6078777e-06 
4.7511574e-05 5.2832071e-05 -9.6056567e-07 
5.6384775e-05 6.3542255e-05 -6.5025489e-07 
5.3616386e-05 6.5139473e-05 -1.4305625e-06 
6.1694103e-05 7.5519980e-05 -1.2637292e-06 
4.4618224e-05 5.1640520e-05 -1.3474403e-06 
5.3582749e-05 5.8949634e-05 -5.8860030e-07 
4.9764159e-05 6.1588202e-05 -1.6854370e-06 
5.8937596e-05 7.0961825e-05 -1.1834022e-06 
5.9060461e-05 6.8920752e-05 -8.6491605e-07 
4.5225326e-05 5.4509899e-05 -1.5988027e-06 
4.6949655e-05 5.2111125e-05 -9.7419104e-07 
5.0878967e-05 5.5436711e-05 -6.5407875e-07 
4.7044541e-05 5.8230758e-05 -1.7498681e-06 
4.7726113e-05 5.5163273e-05 -1.2151891e-06 
4.4211887e-05 5.1035706e-05 -1.3409447e-06 
5.5786393e-05 6.2597370e-05 -6.5350866e-07 
5.4179127e-05 6.5342865e-05 -1.3444590e-06 
5.3036212e-05 5.8119247e-05 -6.0119675e-07 
4.9171595e-05 6.0777762e-05 -1.6820312e-06 
4.4803444e-05 5.3887219e-05 -1.5886926e-06 
6.1136430e-05 7.4670352e-05 -1.2540879e-06 
4.6640929e-05 5.1588606e-05 -9.6973974e-07 
4.8990663e-05 5.6092955e-05 -1.1004748e-06 
5.8541234e-05 6.8122536e-05 -8.5549675e-07 
4.3817534e-05 5.0457875e-05 -1.3392397e-06 
5.0380684e-05 5.4695629e-05 -6.7110398e-07 
4.6522720e-05 5.7494432e-05 -1.7370591e-06 
5.8400801e-05 7.0141716e-05 -1.1698929e-06 
5.5216620e-05 6.1693434e-05 -6.4703181e-07 
5.2272921e-05 6.3373271e-05 -1.4322726e-06 
4.4397311e-05 5.3288244e-05 -1.5855733e-06 
4.6230594e-05 5.0998802e-05 -9.7680277e-07 
5.2519430e-05 5.7324225e-05 -6.0369064e-07 
4.8607115e-05 6.0000508e-05 -1.6730929e-06 
4.7466070e-05 5.3810349e-05 -1.0963817e-06 
4.3434880e-05 4.9895243e-05 -1.3391049e-06 
6.0597024e-05 7.3844181e-05 -1.2489346e-06 
4.9916420e-05 5.3978794e-05 -6.7250795e-07 
4.6023772e-05 5.6795543e-05 -1.7290880e-06 
5.7510413e-05 6.6217850e-05 -8.0357938e-07 
5.5789667e-05 6.6742396e-05 -1.2146369e-06 
4.4002751e-05 5.2702544e-05 -1.5794907e-06 
5.4674620e-05 6.0824146e-05 -6.4371591e-07 
4.6455505e-05 5.0839884e-05 -9.1837023e-07 
5.1651026e-05 6.2554776e-05 -1.4379174e-06 
4.3058892e-05 4.9342554e-05 -1.3391021e-06 
5.2023235e-05 5.6556022e-05 -6.0552725e-07 
4.8065722e-05 5.9261813e-05 -1.6649925e-06 
4.5435841e-05 4.9859809e-05 -9.8929718e-07 
4.3480890e-05 5.1767969e-05 -1.5551536e-06 
4.9474245e-05 5.3293639e-05 -6.7957092e-07 
4.5546858e-05 5.6122655e-05 -1.7232896e-06 
6.0082370e-05 7.3033312e-05 -1.2364035e-06 
4.6321224e-05 5.3511973e-05 -1.2653381e-06 
5.4156961e-05 5.9994018e-05 -6.4358545e-07 
5.1048053e-05 6.1760133e-05 -1.4422051e-06 
4.2695436e-05 4.8814443e-05 -1.3408275e-06 
5.1543757e-05 5.5828859e-05 -6.1511793e-07 
5.7404333e-05 6.8577450e-05 -1.1550729e-06 
5.8209618e-05 6.7974572e-05 -9.1343514e-07 
4.5805133e-05 4.9884511e-05 -9.3220109e-07 
4.7546084e-05 5.8540420e-05 -1.6549624e-06 
4.3452816e-05 5.2083611e-05 -1.5905589e-06 
5.5923414e-05 6.3304789e-05 -7.3423553e-07 
5.3941301e-05 6.4379681e-05 -1.2484155e-06 
4.9040955e-05 5.2639109e-05 -6.9136405e-07 
4.5106561e-05 5.5475721e-05 -1.7040279e-06 
4.2349260e-05 4.8299156e-05 -1.3372404e-06 
5.3657561e-05 5.9193808e-05 -6.4017109e-07 
5.0480579e-05 6.1008472e-05 -1.4433982e-06 
5.9563768e-05 7.2208953e-05 -1.2202482e-06 
4.5704997e-05 4.9533235e-05 -9.0982678e-07 
4.3086155e-05 5.1570318e-05 -1.5852727e-06 
5.1091174e-05 5.5119490e-05 -6.2068813e-07 
4.7059064e-05 5.7858335e-05 -1.6520057e-06 
4.2015050e-05 4.7791229e-05 -1.3352552e-06 
5.6926088e-05 6.7818459e-05 -1.1431090e-06 
5.7722318e-05 6.7220368e-05 -9.1036350e-07 
4.8635095e-05 5.2000833e-05 -6.9134467e-07 
4.4681998e-05 5.4865999e-05 -1.6978660e-06 
5.3177584e-05 5.8419457e-05 -6.4075238e-07 
4.2679909e-05 5.0919130e-05 -1.5770077e-06 
4.9371381e-05 5.9779763e-05 -1.4852236e-06 
5.5144694e-05 6.2037121e-05 -7.2821797e-07 
4.5263834e-05 4.8877366e-05 -9.1898096e-07 
5.0651739e-05 5.4440912e-05 -6.2903706e-07 
4.6597714e-05 5.7197467e-05 -1.6443665e-06 
4.1681989e-05 4.7299414e-05 -1.3330658e-06 
5.9082351e-05 7.1423019e-05 -1.1998388e-06 
4.4986635e-05 5.1464522e-05 -1.2537978e-06 
4.8244539e-05 5.1398776e-05 -6.9471571e-07 
5.3313830e-05 6.3278319e-05 -1.2201823e-06 
4.2118230e-05 4.9742346e-05 -1.5293991e-06 
4.4273911e-05 5.4263401e-05 -1.6896371e-06 
4.3988181e-05 4.7774694e-05 -1.0104449e-06 
5.2717100e-05 5.7679234e-05 -6.3952439e-07 
5.6478810e-05 6.7091445e-05 -1.1242843e-06 
5.7269288e-05 6.6497661e-05 -8.9617612e-07 
4.9415299e-05 5.9574246e-05 -1.4493521e-06 
4.5650311e-05 4.8931339e-05 -8.6660742e-07 
4.1362160e-05 4.6824603e-05 -1.3322048e-06 
5.0235474e-05 5.3792828e-05 -6.3048378e-07 
4.6150395e-05 5.6562825e-05 -1.6365238e-06 
4.3610296e-05 4.7302343e-05 -1.0230228e-06 
4.1881663e-05 4.9496422e-05 -1.5352803e-06 
4.7871607e-05 5.0809002e-05 -7.0011464e-07 
4.3883996e-05 5.3697997e-05 -1.6767362e-06 
5.8620535e-05 7.0674439e-05 -1.1848094e-06 
5.2271589e-05 5.6963578e-05 -6.3995270e-07 
4.1055424e-05 4.6358138e-05 -1.3303727e-06 
4.8380243e-05 5.8422640e-05 -1.4830890e-06 
4.4622899e-05 4.7811980e-05 -9.1463528e-07 
5.4599124e-05 6.1220795e-05 -7.3509358e-07 
4.9829741e-05 5.3162024e-05 -6.3554000e-07 
4.6791389e-05 5.2333387e-05 -1.0508022e-06 
4.1834755e-05 4.9715381e-05 -1.5647244e-06 
5.6056189e-05 6.6395827e-05 -1.1198789e-06 
4.5726647e-05 5.5950521e-05 -1.6317109e-06 
5.6840741e-05 6.5807333e-05 -8.9641810e-07 
4.7508966e-05 5.0253522e-05 -7.1342663e-07 
5.2213865e-05 6.1739527e-05 -1.2228837e-06 