# vtk DataFile Version 4.0
vtk output
ASCII
DATASET UNSTRUCTURED_GRID
POINTS 4496 float
-4.3633327e-01 9.6409470e-01 4.4200001e+01 
-4.3633258e-01 9.6409065e-01 4.4074627e+01 
-3.2152572e-01 9.1279918e-01 4.4200001e+01 
-3.8534868e-01 8.4052670e-01 4.4200001e+01 
-3.9589554e-01 8.5545403e-01 4.4010014e+01 
-3.2616228e-01 9.1667932e-01 4.4011734e+01 
-4.3633190e-01 9.6408653e-01 4.3948376e+01 
-2.1293370e-01 8.4677851e-01 4.4200001e+01 
-2.9042658e-01 7.3813015e-01 4.4200001e+01 
-2.1010752e-01 8.4669363e-01 4.4073502e+01 
-2.8908840e-01 7.3604190e-01 4.4072292e+01 
-3.9589015e-01 8.5505831e-01 4.3883316e+01 
-3.2487559e-01 9.1697580e-01 4.3885036e+01 
-2.0722924e-01 8.4660655e-01 4.3944645e+01 
-1.1981077e-01 7.7773046e-01 4.4200001e+01 
-2.8772619e-01 7.3391593e-01 4.3942276e+01 
-4.3633121e-01 9.6408242e-01 4.3821228e+01 
-1.9739023e-01 6.6468561e-01 4.4200001e+01 
-2.9444304e-01 7.8727525e-01 4.3879974e+01 
-8.7554991e-02 7.5255024e-01 4.4042213e+01 
-1.6445170e-01 6.4084798e-01 4.4041008e+01 
-3.2357255e-01 9.1726828e-01 4.3757431e+01 
-3.9587301e-01 8.5463828e-01 4.3755711e+01 
-2.0429766e-01 8.4651643e-01 4.3813354e+01 
-2.8633916e-01 7.3175091e-01 4.3809875e+01 
-2.6899619e-02 6.8901783e-01 4.4200001e+01 
-1.0567340e-01 7.7152997e-01 4.3875790e+01 
-4.3633053e-01 9.6407831e-01 4.3693161e+01 
-8.7133333e-02 5.9509218e-01 4.4200001e+01 
-1.8777622e-01 6.5475601e-01 4.3873402e+01 
-2.0131156e-01 8.4642249e-01 4.3679543e+01 
-3.2225290e-01 9.1755641e-01 4.3628902e+01 
-3.9584404e-01 8.5419410e-01 4.3627178e+01 
-1.0114321e-03 6.6670936e-01 4.3939713e+01 
-2.8492665e-01 7.2954547e-01 4.3675007e+01 
-1.0131179e-01 7.7015632e-01 4.3743176e+01 
-6.0682178e-02 5.7631296e-01 4.3938457e+01 
3.9444737e-02 6.2338209e-01 4.4053139e+01 
-1.8470748e-01 6.5131217e-01 4.3739727e+01 
-7.0938184e-03 5.4737431e-01 4.4052326e+01 
-4.3632981e-01 9.6407413e-01 4.3564159e+01 
7.6947339e-02 5.8804804e-01 4.4200001e+01 
-1.2721874e-02 6.8194175e-01 4.3817982e+01 
-7.7214435e-02 5.8474159e-01 4.3819649e+01 
4.0195532e-02 5.2425718e-01 4.4200001e+01 
-1.9826968e-01 8.4632379e-01 4.3543118e+01 
-9.6842363e-02 7.6872379e-01 4.3607994e+01 
-3.2091641e-01 9.1783977e-01 4.3499420e+01 
-3.9580306e-01 8.5372573e-01 4.3497700e+01 
-2.8348783e-01 7.2729832e-01 4.3537586e+01 
-1.8155001e-01 6.4778340e-01 4.3603539e+01 
1.5678726e-01 5.2239102e-01 4.4060219e+01 
1.0298219e-02 6.6009766e-01 4.3674484e+01 
1.3250886e-01 4.7546524e-01 4.4058990e+01 
-4.3632913e-01 9.6407002e-01 4.3434200e+01 
-5.0139543e-02 5.6696451e-01 4.3671154e+01 
1.3504514e-01 5.4209155e-01 4.3856747e+01 
1.0361936e-01 4.8715758e-01 4.3855240e+01 
2.0846681e-01 4.8028421e-01 4.4200001e+01 
1.9279444e-01 4.4799727e-01 4.4200001e+01 
-9.2261828e-02 7.6722860e-01 4.3470158e+01 
-1.4701239e-03 6.7547697e-01 4.3552124e+01 
-1.9517080e-01 8.4621930e-01 4.3403992e+01 
-3.1956279e-01 9.1811794e-01 4.3368977e+01 
-3.9574999e-01 8.5323322e-01 4.3367252e+01 
-1.7830023e-01 6.4416617e-01 4.3464752e+01 
-6.7131944e-02 5.7555372e-01 4.3547829e+01 
-2.8202194e-01 7.2500783e-01 4.3397518e+01 
-4.3632844e-01 9.6406585e-01 4.3303261e+01 
1.5138821e-01 5.3037512e-01 4.3609200e+01 
1.2119007e-01 4.7490793e-01 4.3606068e+01 
-8.7566733e-02 7.6566672e-01 4.3329563e+01 
-1.7495437e-01 6.4045686e-01 4.3323273e+01 
-3.1819177e-01 9.1839045e-01 4.3237537e+01 
-3.9568463e-01 8.5271639e-01 4.3235813e+01 
2.2269404e-02 6.5294570e-01 4.3398811e+01 
-1.9201367e-01 8.4610778e-01 4.3262066e+01 
-3.8899176e-02 5.5709696e-01 4.3393635e+01 
-2.8052819e-01 7.2267252e-01 4.3254715e+01 
3.7877345e-01 3.8273901e-01 4.4200001e+01 
-4.3632776e-01 9.6406174e-01 4.3171322e+01 
3.9241230e-01 3.7329337e-01 4.3965439e+01 
1.0283732e-02 6.6872352e-01 4.3271511e+01 
-5.6385640e-02 5.6585240e-01 4.3265472e+01 
-8.2753494e-02 7.6403379e-01 4.3186119e+01 
-4.0345609e-01 8.6371827e-01 4.3104889e+01 
-3.1680310e-01 9.1865683e-01 4.3105087e+01 
-1.7150842e-01 6.3665158e-01 4.3179005e+01 
-1.8879703e-01 8.4598809e-01 4.3117241e+01 
-2.7900568e-01 7.2029078e-01 4.3109074e+01 
4.0610775e-01 3.6380205e-01 4.3729839e+01 
1.6776134e-01 5.1882964e-01 4.3331150e+01 
-4.3632707e-01 9.6405768e-01 4.3038357e+01 
1.4031014e-01 4.6124566e-01 4.3307755e+01 
3.4952711e-02 6.4519531e-01 4.3111935e+01 
-7.7818394e-02 7.6232505e-01 4.3039719e+01 
-3.1539652e-01 9.1891652e-01 4.2971603e+01 
-3.9551663e-01 8.5160977e-01 4.2969879e+01 
-2.6899155e-02 5.4666573e-01 4.3105160e+01 
-1.6795819e-01 6.3274628e-01 4.3031849e+01 
-1.8551964e-01 8.4585863e-01 4.2969406e+01 
4.1985780e-01 3.5425979e-01 4.3493168e+01 
-2.7745360e-01 7.1786088e-01 4.2960495e+01 
-4.3632638e-01 9.6405357e-01 4.2904346e+01 
2.2723136e-02 6.6139150e-01 4.2979332e+01 
-4.4916678e-02 5.5559248e-01 4.2971806e+01 
-3.1397179e-01 9.1916907e-01 4.2837063e+01 
-3.9541367e-01 8.5101974e-01 4.2835335e+01 
-7.2757579e-02 7.6053542e-01 4.2890255e+01 
-1.6429928e-01 6.2873662e-01 4.2881699e+01 
1.8463810e-01 5.0694346e-01 4.3035332e+01 
-1.8218029e-01 8.4571803e-01 4.2818455e+01 
1.5503895e-01 4.5003417e-01 4.3027725e+01 
-2.7587104e-01 7.1538109e-01 4.2808868e+01 
4.3366045e-01 3.4466109e-01 4.3255390e+01 
-4.3632573e-01 9.6404958e-01 4.2769268e+01 
-3.8429454e-01 8.3484912e-01 4.2710606e+01 
-3.1252861e-01 9.1941386e-01 4.2701439e+01 
4.8404284e-02 6.3678014e-01 4.2813030e+01 
-1.4070326e-02 5.3562075e-01 4.2804932e+01 
-6.7567028e-02 7.5865942e-01 4.2737610e+01 
-1.6052702e-01 6.2461799e-01 4.2728443e+01 
-1.7877772e-01 8.4556442e-01 4.2664265e+01 
-4.3632504e-01 9.6404558e-01 4.2633099e+01 
-2.7425703e-01 7.1284944e-01 4.2654083e+01 
4.4751364e-01 3.3500037e-01 4.3016472e+01 
3.5901129e-02 6.5341437e-01 4.2674721e+01 
-3.7959340e-01 8.2794034e-01 4.2568317e+01 
-3.1106678e-01 9.1965032e-01 4.2564713e+01 
-3.2659348e-02 5.4472327e-01 4.2665997e+01 
2.0396979e-01 4.9291667e-01 4.2740131e+01 
-6.2242586e-02 7.5669110e-01 4.2581669e+01 
1.7765003e-01 4.3475360e-01 4.2732578e+01 
-1.5663649e-01 6.2038553e-01 4.2571964e+01 
-4.3632439e-01 9.6404165e-01 4.2495808e+01 
-1.7531081e-01 8.4539592e-01 4.2506718e+01 
-2.7261066e-01 7.1026409e-01 4.2496017e+01 
-3.0958602e-01 9.1987789e-01 4.2426853e+01 
-3.7859210e-01 8.2613736e-01 4.2421188e+01 
4.6141517e-01 3.2527190e-01 4.2776375e+01 
6.2686495e-02 6.2762415e-01 4.2501175e+01 
-3.3570320e-04 5.2390522e-01 4.2492062e+01 
-5.6779940e-02 7.5462401e-01 4.2422298e+01 
-4.3632373e-01 9.6403772e-01 4.2357380e+01 
-1.5262254e-01 6.1603409e-01 4.2412144e+01 
-1.7177837e-01 8.4521037e-01 4.2345684e+01 
-2.7093092e-01 7.0762289e-01 4.2334549e+01 
-3.0808610e-01 9.2009580e-01 4.2287842e+01 
-3.8275370e-01 8.3137155e-01 4.2275047e+01 
4.9876589e-02 6.4471585e-01 4.2356720e+01 
-1.9539909e-02 5.3318781e-01 4.2347118e+01 
-4.3632311e-01 9.6403396e-01 4.2217781e+01 
2.1959943e-01 4.8236796e-01 4.2385345e+01 
-5.1174615e-02 7.5245124e-01 4.2259373e+01 
1.9034323e-01 4.2346162e-01 4.2378918e+01 
-1.4847966e-01 6.1155808e-01 4.2248856e+01 
4.7536272e-01 3.1546980e-01 4.2535065e+01 
-1.6817927e-01 8.4500539e-01 4.2181026e+01 
-2.6921678e-01 7.0492369e-01 4.2169544e+01 
-3.0656675e-01 9.2030340e-01 4.2147648e+01 
-3.9470181e-01 8.4769493e-01 4.2145920e+01 
7.7868804e-02 6.1763972e-01 4.2175373e+01 
-4.3632248e-01 9.6403021e-01 4.2076988e+01 
1.4390758e-02 5.1145434e-01 4.2165581e+01 
-4.5421973e-02 7.5016522e-01 4.2092751e+01 
-1.4420210e-01 6.0695171e-01 4.2081959e+01 
-3.0502778e-01 9.2049998e-01 4.2006248e+01 
-4.0175444e-01 8.5747409e-01 4.2004128e+01 
-1.6451253e-01 8.4477836e-01 4.2012604e+01 
4.8935395e-01 3.0558801e-01 4.2292507e+01 
-2.6746723e-01 7.0216429e-01 4.2000870e+01 
6.4714879e-02 6.3520777e-01 4.2024277e+01 
-4.3632188e-01 9.6402657e-01 4.1934975e+01 
-5.4755262e-03 5.2092212e-01 4.2014156e+01 
-2.3078828e-01 8.1064087e-01 4.1931458e+01 
2.3550548e-01 4.7116494e-01 4.2073269e+01 
2.0610523e-01 4.1123796e-01 4.2066772e+01 
-3.9517213e-02 7.4775779e-01 4.1922287e+01 
-1.3978374e-01 6.0220873e-01 4.1911320e+01 
-3.0346894e-01 9.2068475e-01 4.1863613e+01 
-3.9432141e-01 8.4618556e-01 4.1861881e+01 
-1.6077711e-01 8.4452641e-01 4.1840263e+01 
-2.6568118e-01 6.9934219e-01 4.1828377e+01 
-4.3632129e-01 9.6402299e-01 4.1791718e+01 
5.0338638e-01 2.9562023e-01 4.2048656e+01 
9.4028555e-02 6.0672593e-01 4.1834507e+01 
3.0205652e-02 4.9819478e-01 4.1824417e+01 
-3.8116732e-01 8.2744831e-01 4.1725647e+01 
-3.0189002e-01 9.2085695e-01 4.1719719e+01 
-3.3455357e-02 7.4522001e-01 4.1747829e+01 
-1.3521814e-01 5.9732240e-01 4.1736786e+01 
-4.3632072e-01 9.6401960e-01 4.1647179e+01 
-1.5697217e-01 8.4424627e-01 4.1663853e+01 
-2.6385748e-01 6.9645494e-01 4.1651920e+01 
8.0488607e-02 6.2478805e-01 4.1676235e+01 
2.6870471e-01 4.4547972e-01 4.1752304e+01 
9.6269641e-03 5.0785345e-01 4.1665993e+01 
2.4764967e-01 3.8646612e-01 4.1743168e+01 
-3.0029076e-01 9.2101562e-01 4.1574532e+01 
-3.9388368e-01 8.4456980e-01 4.1572796e+01 
5.1745731e-01 2.8556010e-01 4.1803486e+01 
-2.7231261e-02 7.4254233e-01 4.1569210e+01 
-1.3049847e-01 5.9228569e-01 4.1558201e+01 
-4.3632016e-01 9.6401632e-01 4.1501339e+01 
-1.5309690e-01 8.4393430e-01 4.1483204e+01 
-2.6199502e-01 6.9349992e-01 4.1471333e+01 
-2.9867104e-01 9.2115986e-01 4.1428024e+01 
-3.9364263e-01 8.4372103e-01 4.1426289e+01 
1.1125199e-01 5.9476525e-01 4.1477348e+01 
4.7217656e-02 4.8404291e-01 4.1467384e+01 
-4.3631962e-01 9.6401310e-01 4.1354160e+01 
-2.0839609e-02 7.3971421e-01 4.1386261e+01 
-1.2561750e-01 5.8709091e-01 4.1375404e+01 
5.3156406e-01 2.7540097e-01 4.1556946e+01 
-1.4915068e-01 8.4358656e-01 4.1298138e+01 
-2.9703063e-01 9.2128879e-01 4.1280167e+01 
-3.9338648e-01 8.4284443e-01 4.1278431e+01 
-2.6009262e-01 6.9047421e-01 4.1286449e+01 
2.9365057e-01 4.2687622e-01 4.1391586e+01 
9.7278498e-02 6.1333776e-01 4.1311302e+01 
2.7470219e-01 3.6807936e-01 4.1382729e+01 
2.5872495e-02 4.9389899e-01 4.1301384e+01 
-4.3631911e-01 9.6401012e-01 4.1205620e+01 
-1.4274905e-02 7.3672432e-01 4.1198803e+01 
-1.2056758e-01 5.8173001e-01 4.1188221e+01 
-2.9536936e-01 9.2140132e-01 4.1130928e+01 
[...]
POINT_DATA 4496
FIELD FieldData 5
DISPLACEMENT 3 4496  float
2.3021495e-02 2.2554729e-02 -1.9797635e-04 
2.2924494e-02 2.2444606e-02 -1.9788649e-04 
2.3041787e-02 2.2600193e-02 -2.4180779e-04 
2.3070464e-02 2.2574965e-02 -1.2894206e-04 
2.2917552e-02 2.2403911e-02 -1.3375682e-04 
2.2894586e-02 2.2432985e-02 -2.4149449e-04 
2.2826824e-02 2.2333732e-02 -1.9779458e-04 
2.3067927e-02 2.2643214e-02 -2.6790446e-04 
2.3111036e-02 2.2612587e-02 -1.1250614e-04 
2.2970075e-02 2.2533210e-02 -2.6992976e-04 
2.3013040e-02 2.2500934e-02 -1.1161943e-04 
2.2819689e-02 2.2292644e-02 -1.3332507e-04 
2.2796454e-02 2.2322217e-02 -2.4266365e-04 
2.2870410e-02 2.2421150e-02 -2.7198886e-04 
2.3095276e-02 2.2680121e-02 -2.7937233e-04 
2.2913273e-02 2.2387275e-02 -1.1072266e-04 
2.2728477e-02 2.2222087e-02 -1.9770012e-04 
2.3140134e-02 2.2649461e-02 -1.2003629e-04 
2.2843923e-02 2.2329871e-02 -1.5233520e-04 
2.2983147e-02 2.2554284e-02 -2.8212598e-04 
2.3026530e-02 2.2522831e-02 -1.2449364e-04 
2.2697646e-02 2.2210676e-02 -2.4382226e-04 
2.2721142e-02 2.2180609e-02 -1.3288870e-04 
2.2768872e-02 2.2306981e-02 -2.7408355e-04 
2.2811677e-02 2.2271540e-02 -1.0980810e-04 
2.3130432e-02 2.2716967e-02 -2.7340915e-04 
2.2846853e-02 2.2400880e-02 -2.8464288e-04 
2.2629466e-02 2.2109661e-02 -1.9759800e-04 
2.3167714e-02 2.2693163e-02 -1.4427304e-04 
2.2891305e-02 2.2366352e-02 -1.1853824e-04 
2.2665408e-02 2.2190630e-02 -2.7620888e-04 
2.2598147e-02 2.2098346e-02 -2.4499738e-04 
2.2621915e-02 2.2067802e-02 -1.3244929e-04 
2.2937827e-02 2.2498513e-02 -2.7368692e-04 
2.2708191e-02 2.2153664e-02 -1.0888148e-04 
2.2744793e-02 2.2286093e-02 -2.8671444e-04 
2.2972712e-02 2.2473836e-02 -1.4807582e-04 
2.3042778e-02 2.2614235e-02 -2.6703885e-04 
2.2789204e-02 2.2250146e-02 -1.1780493e-04 
2.3072321e-02 2.2595130e-02 -1.6422475e-04 
2.2529740e-02 2.1996474e-02 -1.9749734e-04 
2.3170466e-02 2.2758182e-02 -2.6514279e-04 
2.2837581e-02 2.2386892e-02 -2.7791303e-04 
2.2877404e-02 2.2362895e-02 -1.4259877e-04 
2.3195801e-02 2.2743654e-02 -1.8063505e-04 
2.2559941e-02 2.2072017e-02 -2.7836618e-04 
2.2640780e-02 2.2169096e-02 -2.8881128e-04 
2.2497945e-02 2.1985229e-02 -2.4616628e-04 
2.2521980e-02 2.1954196e-02 -1.3197454e-04 
2.2602769e-02 2.2033585e-02 -1.0793949e-04 
2.2685204e-02 2.2131776e-02 -1.1706311e-04 
2.3088288e-02 2.2667000e-02 -2.6920473e-04 
2.2735167e-02 2.2269890e-02 -2.7645624e-04 
2.3105964e-02 2.2656323e-02 -2.0915836e-04 
2.2429319e-02 2.1882450e-02 -1.9738493e-04 
2.2769477e-02 2.2243127e-02 -1.4785078e-04 
2.2922952e-02 2.2479501e-02 -2.6954067e-04 
2.2943567e-02 2.2465767e-02 -1.9691305e-04 
2.3213215e-02 2.2810398e-02 -2.7233190e-04 
2.3226039e-02 2.2804203e-02 -2.3180743e-04 
2.2534754e-02 2.2049814e-02 -2.9094057e-04 
2.2634406e-02 2.2157710e-02 -2.8075441e-04 
2.2452418e-02 2.1951091e-02 -2.8055880e-04 
2.2397013e-02 2.1871286e-02 -2.4735299e-04 
2.2421332e-02 2.1839786e-02 -1.3150525e-04 
2.2579230e-02 2.2011187e-02 -1.1632674e-04 
2.2670610e-02 2.2128060e-02 -1.4217239e-04 
2.2495318e-02 2.1911221e-02 -1.0698713e-04 
2.2328157e-02 2.1767629e-02 -1.9727899e-04 
2.2735920e-02 2.2268295e-02 -2.7174287e-04 
2.2755444e-02 2.2253651e-02 -1.9958682e-04 
2.2426644e-02 2.1928189e-02 -2.9307985e-04 
2.2471212e-02 2.1888284e-02 -1.1557702e-04 
2.2295367e-02 2.1756541e-02 -2.4852765e-04 
2.2319967e-02 2.1724558e-02 -1.3102950e-04 
2.2524668e-02 2.2032356e-02 -2.7924275e-04 
2.2342764e-02 2.1827746e-02 -2.8277456e-04 
2.2558533e-02 2.2003733e-02 -1.4771544e-04 
2.2385787e-02 2.1786503e-02 -1.0601636e-04 
2.3251895e-02 2.2877971e-02 -3.1852617e-04 
2.2226259e-02 2.1651965e-02 -1.9717305e-04 
2.3073966e-02 2.2677056e-02 -3.2062785e-04 
2.2419965e-02 2.1915782e-02 -2.8371034e-04 
2.2455871e-02 2.1884274e-02 -1.4180814e-04 
2.2316391e-02 2.1804120e-02 -2.9524966e-04 
2.2214454e-02 2.1606715e-02 -1.3459487e-04 
2.2192935e-02 2.1640917e-02 -2.4972347e-04 
2.2361107e-02 2.1763023e-02 -1.1483069e-04 
2.2230914e-02 2.1701938e-02 -2.8502222e-04 
2.2274135e-02 2.1659378e-02 -1.0501387e-04 
2.2895198e-02 2.2475176e-02 -3.2273275e-04 
2.2525182e-02 2.2030272e-02 -2.7409918e-04 
2.2123594e-02 2.1535480e-02 -1.9706320e-04 
2.2529783e-02 2.1998923e-02 -2.0220409e-04 
2.2305787e-02 2.1785296e-02 -2.8204147e-04 
2.2203909e-02 2.1677544e-02 -2.9742997e-04 
2.2089800e-02 2.1524476e-02 -2.5089254e-04 
2.2114947e-02 2.1491546e-02 -1.3001647e-04 
2.2339346e-02 2.1755079e-02 -1.4767873e-04 
2.2248803e-02 2.1635294e-02 -1.1407102e-04 
2.2116780e-02 2.1573540e-02 -2.8728912e-04 
2.2715567e-02 2.2272224e-02 -3.2484185e-04 
2.2160225e-02 2.1529721e-02 -1.0401145e-04 
2.2020217e-02 2.1418098e-02 -1.9692996e-04 
2.2196878e-02 2.1664029e-02 -2.8667174e-04 
2.2232631e-02 2.1630941e-02 -1.4152993e-04 
2.1985872e-02 2.1407155e-02 -2.5209665e-04 
2.2011315e-02 2.1373775e-02 -1.2950892e-04 
2.2089126e-02 2.1548355e-02 -2.9963706e-04 
2.2134267e-02 2.1505050e-02 -1.1332413e-04 
2.2300834e-02 2.1776808e-02 -2.7654602e-04 
2.2000281e-02 2.1442475e-02 -2.8958113e-04 
2.2317316e-02 2.1758543e-02 -2.0360250e-04 
2.2044046e-02 2.1397511e-02 -1.0300385e-04 
2.2535071e-02 2.2068307e-02 -3.2699661e-04 
2.1916011e-02 2.1299917e-02 -1.9679715e-04 
2.1921370e-02 2.1268984e-02 -1.2383777e-04 
2.1881176e-02 2.1289000e-02 -2.5325452e-04 
2.2077939e-02 2.1528076e-02 -2.8483977e-04 
2.2111339e-02 2.1496564e-02 -1.4777514e-04 
2.1971939e-02 2.1416496e-02 -3.0185559e-04 
2.2017375e-02 2.1372182e-02 -1.1255634e-04 
2.1881372e-02 2.1308722e-02 -2.9189326e-04 
2.1811049e-02 2.1180842e-02 -1.9664633e-04 
2.1925464e-02 2.1262567e-02 -1.0196696e-04 
2.2353655e-02 2.1863317e-02 -3.2911336e-04 
2.1964531e-02 2.1401810e-02 -2.8962464e-04 
2.1814315e-02 2.1146376e-02 -1.2129612e-04 
2.1775691e-02 2.1169933e-02 -2.5439102e-04 
2.2000290e-02 2.1367449e-02 -1.4135857e-04 
2.2077816e-02 2.1524908e-02 -2.7902701e-04 
2.1852337e-02 2.1281866e-02 -3.0410319e-04 
2.2094719e-02 2.1508029e-02 -2.0755451e-04 
2.1898100e-02 2.1236626e-02 -1.1184825e-04 
2.1705311e-02 2.1060856e-02 -1.9646171e-04 
2.1759912e-02 2.1172132e-02 -2.9425076e-04 
2.1804417e-02 2.1124924e-02 -1.0092331e-04 
2.1669360e-02 2.1049982e-02 -2.5557526e-04 
2.1701563e-02 2.1018229e-02 -1.2040757e-04 
2.2171397e-02 2.1657435e-02 -3.3121835e-04 
2.1840502e-02 2.1260027e-02 -2.8760411e-04 
2.1873912e-02 2.1227544e-02 -1.4800217e-04 
2.1730166e-02 2.1144386e-02 -3.0630879e-04 
2.1598717e-02 2.0940026e-02 -1.9630164e-04 
2.1776307e-02 2.1098280e-02 -1.1110086e-04 
2.1635860e-02 2.1032618e-02 -2.9659708e-04 
2.1680826e-02 2.0984441e-02 -9.9859171e-05 
2.1562245e-02 2.0929150e-02 -2.5673263e-04 
2.1586915e-02 2.0889066e-02 -1.2169201e-04 
2.1722296e-02 2.1128401e-02 -2.9253148e-04 
2.1758273e-02 2.1093138e-02 -1.4128535e-04 
2.1491321e-02 2.0818312e-02 -1.9612578e-04 
2.1807451e-02 2.1219453e-02 -2.8168008e-04 
2.1605369e-02 2.1003967e-02 -3.0852362e-04 
2.1825390e-02 2.1202495e-02 -2.0737607e-04 
2.1651948e-02 2.0957103e-02 -1.1035991e-04 
2.1988235e-02 2.1450492e-02 -3.3329427e-04 
2.1509107e-02 2.0890094e-02 -2.9896494e-04 
2.1554584e-02 2.0841016e-02 -9.8779179e-05 
2.1454332e-02 2.0807456e-02 -2.5786547e-04 
2.1481192e-02 2.0771878e-02 -1.2666025e-04 
2.1592831e-02 2.0980475e-02 -2.9032512e-04 
2.1383081e-02 2.0695651e-02 -1.9595654e-04 
2.1626443e-02 2.0947391e-02 -1.4843376e-04 
2.1477848e-02 2.0860506e-02 -3.1074748e-04 
2.1524971e-02 2.0812962e-02 -1.0959620e-04 
2.1345465e-02 2.0684730e-02 -2.5905919e-04 
2.1368232e-02 2.0645590e-02 -1.2966502e-04 
2.1379557e-02 2.0744462e-02 -3.0135168e-04 
2.1804160e-02 2.1242533e-02 -3.3537520e-04 
2.1425691e-02 2.0694621e-02 -9.7643489e-05 
2.1469517e-02 2.0843200e-02 -2.9537015e-04 
2.1273861e-02 2.0572014e-02 -1.9579557e-04 
2.1505889e-02 2.0807374e-02 -1.4138357e-04 
2.1330349e-02 2.0648198e-02 -2.2040325e-04 
2.1570612e-02 2.0952014e-02 -2.8401794e-04 
2.1588759e-02 2.0935023e-02 -2.0882495e-04 
2.1347523e-02 2.0713933e-02 -3.1298518e-04 
2.1395223e-02 2.0665795e-02 -1.0882918e-04 
2.1235697e-02 2.0561025e-02 -2.6021418e-04 
2.1263106e-02 2.0524567e-02 -1.2545205e-04 
2.1247096e-02 2.0595668e-02 -3.0376017e-04 
2.1293983e-02 2.0545024e-02 -9.6496347e-05 
2.1163804e-02 2.0447388e-02 -1.9558640e-04 
2.1619240e-02 2.1033734e-02 -3.3745985e-04 
2.1334192e-02 2.0688670e-02 -2.9298686e-04 
2.1368209e-02 2.0655369e-02 -1.4904690e-04 
2.1165643e-02 2.0411156e-02 -1.1909380e-04 
2.1125143e-02 2.0436443e-02 -2.6131634e-04 
2.1214228e-02 2.0564044e-02 -3.1522254e-04 
2.1262582e-02 2.0515408e-02 -1.0805154e-04 
2.1052910e-02 2.0321792e-02 -1.9533712e-04 
2.1111637e-02 2.0443462e-02 -3.0618379e-04 
2.1159245e-02 2.0392161e-02 -9.5358359e-05 
2.1205351e-02 2.0545324e-02 -2.9811694e-04 
2.1332685e-02 2.0683888e-02 -2.8707093e-04 
2.1242309e-02 2.0509314e-02 -1.4164789e-04 
2.1348283e-02 2.0667858e-02 -2.1925670e-04 
2.1013618e-02 2.0310849e-02 -2.6247406e-04 
2.1041652e-02 2.0273551e-02 -1.2410483e-04 
2.1433553e-02 2.0824244e-02 -3.3951635e-04 
2.1077896e-02 2.0410758e-02 -3.1745920e-04 
2.1126989e-02 2.0361779e-02 -1.0732744e-04 
2.0941077e-02 2.0195302e-02 -1.9510752e-04 
2.0973029e-02 2.0287806e-02 -3.0857386e-04 
2.1021480e-02 2.0235989e-02 -9.4218987e-05 
2.0901233e-02 2.0184297e-02 -2.6356927e-04 
2.0929525e-02 2.0146625e-02 -1.2348250e-04 
2.1063710e-02 2.0383669e-02 -2.9553974e-04 
2.1098368e-02 2.0350641e-02 -1.4982083e-04 
2.0828269e-02 2.0067887e-02 -1.9488909e-04 
2.0938398e-02 2.0254003e-02 -3.1964251e-04 
2.0988297e-02 2.0204747e-02 -1.0654985e-04 
2.1246927e-02 2.0613663e-02 -3.4148645e-04 
2.0831183e-02 2.0128619e-02 -3.1094902e-04 
2.0787874e-02 2.0056816e-02 -2.6464672e-04 
2.0816427e-02 2.0018676e-02 -1.2275646e-04 
2.0880600e-02 2.0076329e-02 -9.2978087e-05 
2.1061605e-02 2.0378409e-02 -2.8997328e-04 
2.0928945e-02 2.0233763e-02 -3.0078023e-04 
2.1077180e-02 2.0363530e-02 -2.2411950e-04 
2.0966796e-02 2.0198116e-02 -1.4201806e-04 
2.0714587e-02 1.9939320e-02 -1.9464549e-04 
2.0795655e-02 2.0093640e-02 -3.2184689e-04 
2.0846359e-02 2.0044193e-02 -1.0578208e-04 
2.0673566e-02 1.9928185e-02 -2.6577440e-04 
2.0702440e-02 1.9889684e-02 -1.2207891e-04 
2.0685999e-02 1.9965669e-02 -3.1341016e-04 
2.0736393e-02 1.9913120e-02 -9.1757618e-05 
2.1059364e-02 2.0402197e-02 -3.4348431e-04 
2.0599853e-02 1.9809846e-02 -1.9439698e-04 
2.0780489e-02 2.0064520e-02 -2.9797628e-04 
2.0815978e-02 2.0032166e-02 -1.5087779e-04 
2.0558253e-02 1.9798584e-02 -2.6688972e-04 
2.0587411e-02 1.9759679e-02 -1.2132800e-04 
2.0649441e-02 1.9929413e-02 -3.2401143e-04 
2.0701146e-02 1.9880040e-02 -1.0502669e-04 
2.0484205e-02 1.9679219e-02 -1.9412086e-04 
2.0537300e-02 1.9798905e-02 -3.1574792e-04 
2.0588737e-02 1.9746121e-02 -9.0481997e-05 
2.0777648e-02 2.0058770e-02 -2.9305829e-04 
2.0793470e-02 2.0045483e-02 -2.2949850e-04 
2.0633759e-02 1.9899262e-02 -2.9907731e-04 
2.0870963e-02 2.0189982e-02 -3.4544384e-04 
2.0442020e-02 1.9667910e-02 -2.6792634e-04 
2.0471437e-02 1.9628678e-02 -1.2066255e-04 
2.0669742e-02 1.9867571e-02 -1.5143487e-04 
2.0499744e-02 1.9761395e-02 -3.2610859e-04 
2.0552406e-02 1.9712066e-02 -1.0428923e-04 
2.0367473e-02 1.9547708e-02 -1.9384584e-04 
2.0384876e-02 1.9628104e-02 -3.1814579e-04 
2.0437656e-02 1.9575320e-02 -8.9209978e-05 
2.0324735e-02 1.9536339e-02 -2.6893319e-04 
2.0354388e-02 1.9496625e-02 -1.1987021e-04 
2.0483470e-02 1.9730100e-02 -3.0017723e-04 
2.0372510e-02 1.9538006e-02 -1.6279586e-04 
2.0520050e-02 1.9699192e-02 -1.5215915e-04 
2.0249769e-02 1.9414989e-02 -1.9352337e-04 
2.0681506e-02 1.9976489e-02 -3.4732354e-04 
2.0539340e-02 1.9790081e-02 -2.9424569e-04 
2.0346351e-02 1.9589316e-02 -3.2810585e-04 
2.0557627e-02 1.9775884e-02 -2.2267082e-04 
2.0400137e-02 1.9540349e-02 -1.0352535e-04 
2.0206368e-02 1.9403493e-02 -2.6989417e-04 
2.0236302e-02 1.9363459e-02 -1.1910904e-04 
2.0228906e-02 1.9453360e-02 -3.2037965e-04 
2.0282796e-02 1.9400630e-02 -8.7996923e-05 
2.0130998e-02 1.9281350e-02 -1.9323529e-04 
2.0329513e-02 1.9556928e-02 -3.0126146e-04 
2.0366730e-02 1.9526890e-02 -1.5288092e-04 
2.0189183e-02 1.9413132e-02 -3.3015045e-04 
2.0087074e-02 1.9269681e-02 -2.7088958e-04 
2.0117283e-02 1.9229300e-02 -1.1831312e-04 
2.0244088e-02 1.9364560e-02 -1.0271739e-04 
2.0490941e-02 1.9762293e-02 -3.4925895e-04 
2.0068834e-02 1.9274281e-02 -3.2275106e-04 
2.0011211e-02 1.9146578e-02 -1.9289352e-04 
2.0358901e-02 1.9563900e-02 -2.4736795e-04 
2.0344224e-02 1.9573621e-02 -3.0165451e-04 
2.0124149e-02 1.9221783e-02 -8.6591164e-05 
2.0171674e-02 1.9379590e-02 -3.0219887e-04 
2.0209571e-02 1.9350516e-02 -1.5374801e-04 
1.9966641e-02 1.9134745e-02 -2.7189808e-04 
1.9997098e-02 1.9094033e-02 -1.1750055e-04 
2.0027969e-02 1.9232560e-02 -3.3214831e-04 
2.0084212e-02 1.9184584e-02 -1.0194109e-04 
1.9890251e-02 1.9010665e-02 -1.9252933e-04 
2.0299517e-02 1.9547056e-02 -3.5101417e-04 
1.9904591e-02 1.9090690e-02 -3.2509735e-04 
1.9961495e-02 1.9038582e-02 -8.5157692e-05 
1.9845091e-02 1.8998753e-02 -2.7277414e-04 
1.9875772e-02 1.8957682e-02 -1.1672412e-04 
2.0167165e-02 1.9348610e-02 -2.4861968e-04 
2.0152597e-02 1.9358506e-02 -3.0327641e-04 
2.0006835e-02 1.9194653e-02 -3.0325833e-04 
2.0044059e-02 1.9164655e-02 -1.5380433e-04 
1.9858507e-02 1.8974515e-02 -1.9163033e-04 
1.9768421e-02 1.8873820e-02 -1.9214784e-04 
1.9863194e-02 1.9048335e-02 -3.3432074e-04 
1.9921470e-02 1.9001255e-02 -1.0032474e-04 
1.9723285e-02 1.8861957e-02 -2.7257949e-04 
1.9753899e-02 1.8821118e-02 -1.1653523e-04 
1.9739125e-02 1.8905805e-02 -3.2718256e-04 
2.0107212e-02 1.9331170e-02 -3.5269573e-04 
1.9799195e-02 1.8856190e-02 -8.3846222e-05 
1.9647434e-02 1.8738303e-02 -1.9182191e-04 
1.9836394e-02 1.9004213e-02 -3.0558117e-04 
1.9878851e-02 1.8977629e-02 -1.5033278e-04 
1.9975144e-02 1.9133449e-02 -2.5007458e-04 
1.9960722e-02 1.9143431e-02 -3.0485549e-04 
1.9696238e-02 1.8792585e-02 -1.9150217e-04 
1.9602476e-02 1.8726468e-02 -2.7229817e-04 
1.9698052e-02 1.8864023e-02 -3.3673047e-04 
1.9632936e-02 1.8685659e-02 -1.1625032e-04 
1.9759785e-02 1.8819178e-02 -9.8265737e-05 
1.9527454e-02 1.8603716e-02 -1.9139606e-04 
1.9576643e-02 1.8724460e-02 -3.2918958e-04 
1.9639479e-02 1.8677028e-02 -8.2534927e-05 
1.9914744e-02 1.9115306e-02 -3.5436713e-04 
1.9671438e-02 1.8820520e-02 -3.0839021e-04 
1.9717893e-02 1.8795576e-02 -1.4672405e-04 
1.9482370e-02 1.8591888e-02 -2.7213481e-04 
1.9512787e-02 1.8551305e-02 -1.1598848e-04 
1.9747157e-02 1.8901292e-02 -3.0008683e-04 
1.9768972e-02 1.8890422e-02 -2.2560728e-04 
1.9535856e-02 1.8683203e-02 -3.3905110e-04 
1.9600626e-02 1.8640123e-02 -9.6214331e-05 
1.9496242e-02 1.8568560e-02 -1.9092753e-04 
1.9408215e-02 1.8470315e-02 -1.9102990e-04 
1.9482268e-02 1.8500773e-02 -8.1152510e-05 
1.9416830e-02 1.8546263e-02 -3.3106960e-04 
1.9363230e-02 1.8458432e-02 -2.7186392e-04 
1.9393474e-02 1.8418070e-02 -1.1570741e-04 
1.9559417e-02 1.8616555e-02 -1.4318032e-04 
1.9509364e-02 1.8640177e-02 -3.1119684e-04 
1.9722478e-02 1.8900095e-02 -3.5598490e-04 
1.9289667e-02 1.8337915e-02 -1.9067618e-04 
1.9443855e-02 1.8464092e-02 -9.4190611e-05 
1.9376354e-02 1.8505678e-02 -3.4126302e-04 
1.9577313e-02 1.8714702e-02 -3.0814539e-04 
1.9566108e-02 1.8665511e-02 -2.3045402e-04 
1.9244749e-02 1.8325964e-02 -2.7151447e-04 
1.9270957e-02 1.8282089e-02 -1.1714668e-04 
1.9327508e-02 1.8327350e-02 -7.9657970e-05 
1.9259691e-02 1.8371485e-02 -3.3293938e-04 
1.9237831e-02 1.8283004e-02 -1.9727557e-04 
1.9171966e-02 1.8206306e-02 -1.9021926e-04 
1.9403188e-02 1.8440500e-02 -1.3987541e-04 
1.9350618e-02 1.8459240e-02 -3.0462552e-04 
1.9289354e-02 1.8291006e-02 -9.2346039e-05 
1.9219546e-02 1.8331207e-02 -3.4335270e-04 
1.9127069e-02 1.8194379e-02 -2.7110806e-04 
1.9530624e-02 1.8685769e-02 -3.5761585e-04 
1.9157080e-02 1.8154290e-02 -1.1505058e-04 
1.9174222e-02 1.8205678e-02 -1.8369664e-04 
1.9390406e-02 1.8469188e-02 -2.3081360e-04 
1.9055013e-02 1.8075844e-02 -1.8981165e-04 
1.9174725e-02 1.8156856e-02 -7.8454330e-05 
1.9105086e-02 1.8199472e-02 -3.3455214e-04 
1.9385843e-02 1.8501041e-02 -3.0954857e-04 
1.9249320e-02 1.8267376e-02 -1.3648572e-04 
1.9193305e-02 1.8289033e-02 -3.1639260e-04 
1.9010162e-02 1.8063892e-02 -2.7079243e-04 
1.9040110e-02 1.8023983e-02 -1.1475254e-04 
1.9137191e-02 1.8120706e-02 -9.0378475e-05 
1.9065293e-02 1.8159745e-02 -3.4523389e-04 
1.9014359e-02 1.8020505e-02 -1.6839408e-04 
1.8938772e-02 1.7946340e-02 -1.8941989e-04 
1.9338893e-02 1.8471908e-02 -3.5925716e-04 
1.9024327e-02 1.7988928e-02 -7.7020071e-05 
1.8952904e-02 1.8030502e-02 -3.3609351e-04 
1.9207472e-02 1.8255863e-02 -2.1174643e-04 
1.9169893e-02 1.8255476e-02 -3.0073503e-04 
1.8893983e-02 1.7934320e-02 -2.7037266e-04 
1.9097732e-02 1.8096995e-02 -1.3325743e-04 
1.8921794e-02 1.7887883e-02 -1.0472110e-04 
1.9039223e-02 1.8118227e-02 -3.1893604e-04 
1.8823160e-02 1.7817704e-02 -1.8901036e-04 
1.8987164e-02 1.7953007e-02 -8.8447756e-05 
1.8913431e-02 1.7991332e-02 -3.4698893e-04 
1.8808154e-02 1.7766144e-02 -1.1411621e-04 
1.8774575e-02 1.7797848e-02 -2.6230369e-04 
1.8876055e-02 1.7823650e-02 -7.5682197e-05 
1.8803084e-02 1.7864328e-02 -3.3755149e-04 
1.9147322e-02 1.8258380e-02 -3.6054649e-04 
1.8786326e-02 1.7787663e-02 -2.1255491e-04 
1.8948305e-02 1.7929399e-02 -1.3013897e-04 
1.8887410e-02 1.7950198e-02 -3.2138094e-04 
1.8708277e-02 1.7690161e-02 -1.8863447e-04 
1.8839141e-02 1.7788080e-02 -8.6672218e-05 
1.9003505e-02 1.8075131e-02 -3.1226376e-04 
1.9017169e-02 1.8064994e-02 -2.5740813e-04 
1.8719165e-02 1.7662680e-02 -1.0362030e-04 
1.8763874e-02 1.7825563e-02 -3.4859710e-04 
1.8676892e-02 1.7697113e-02 -2.7928923e-04 
1.8940341e-02 1.7944165e-02 -1.8121485e-04 
1.8891176e-02 1.7945258e-02 -3.0209127e-04 
1.8729623e-02 1.7660961e-02 -7.4449461e-05 
1.8655779e-02 1.7700877e-02 -3.3867717e-04 
1.8594224e-02 1.7563526e-02 -1.8814189e-04 
1.8800905e-02 1.7764375e-02 -1.2702060e-04 
1.8738121e-02 1.7785167e-02 -3.2363331e-04 
1.8955445e-02 1.8044597e-02 -3.6186026e-04 
1.8596817e-02 1.7525334e-02 -9.9242177e-05 
1.8551337e-02 1.7558400e-02 -2.8043188e-04 
1.8693252e-02 1.7625498e-02 -8.4859057e-05 
1.8616751e-02 1.7662674e-02 -3.5019632e-04 
1.8480849e-02 1.7437663e-02 -1.8768145e-04 
1.8812275e-02 1.7862653e-02 -3.1339709e-04 
1.8825725e-02 1.7852552e-02 -2.5863052e-04 
1.8585311e-02 1.7500544e-02 -7.3042007e-05 
1.8510602e-02 1.7540308e-02 -3.3985754e-04 
1.8655419e-02 1.7601777e-02 -1.2406558e-04 
1.8429009e-02 1.7421780e-02 -2.7808399e-04 
1.8568566e-02 1.7600233e-02 -3.3098552e-04 
1.8677387e-02 1.7650723e-02 -1.7761585e-04 
1.8452551e-02 1.7365439e-02 -9.8541292e-05 
1.8549178e-02 1.7465409e-02 -8.3138475e-05 
1.8471885e-02 1.7502343e-02 -3.5161615e-04 
1.8367959e-02 1.7312735e-02 -1.8720466e-04 
1.8763941e-02 1.7831601e-02 -3.6297279e-04 
1.8386310e-02 1.7342165e-02 -2.0763943e-04 
1.8442873e-02 1.7342705e-02 -7.1654358e-05 
1.8570025e-02 1.7588548e-02 -3.0249343e-04 
1.8323967e-02 1.7298084e-02 -2.6163639e-04 
1.8367469e-02 1.7381981e-02 -3.4095545e-04 
1.8352721e-02 1.7261822e-02 -1.1270939e-04 
1.8511910e-02 1.7441684e-02 -1.2112437e-04 
1.8621318e-02 1.7650867e-02 -3.1429165e-04 
1.8634615e-02 1.7640792e-02 -2.5956059e-04 
1.8446155e-02 1.7462820e-02 -3.2792301e-04 
1.8331848e-02 1.7228147e-02 -8.9183501e-05 
1.8255778e-02 1.7188724e-02 -1.8675585e-04 
1.8407099e-02 1.7307751e-02 -8.1300117e-05 
1.8329008e-02 1.7344570e-02 -3.5291264e-04 
1.8256243e-02 1.7156025e-02 -1.1403993e-04 
1.8211598e-02 1.7176226e-02 -2.6690017e-04 
1.8302253e-02 1.7186943e-02 -7.0339069e-05 
1.8226402e-02 1.7226407e-02 -3.4180563e-04 
1.8572517e-02 1.7619330e-02 -3.6403048e-04 
1.8370142e-02 1.7283909e-02 -1.1827239e-04 
1.8144280e-02 1.7065492e-02 -1.8628166e-04 
1.8281708e-02 1.7283816e-02 -3.3469408e-04 
1.8179242e-02 1.7062513e-02 -9.4925555e-05 
1.8396575e-02 1.7341882e-02 -1.8209222e-04 
1.8266698e-02 1.7152239e-02 -7.9575613e-05 
1.8207591e-02 1.7129766e-02 -1.7440504e-04 
1.8111082e-02 1.7071716e-02 -2.8138162e-04 
1.8430509e-02 1.7439621e-02 -3.1529000e-04 
1.8188234e-02 1.7189236e-02 -3.5413346e-04 
1.8443650e-02 1.7429586e-02 -2.6061211e-04 
1.8163318e-02 1.7033603e-02 -6.9140646e-05 
1.8283118e-02 1.7271226e-02 -3.0380234e-04 