# vtk DataFile Version 4.0
vtk output
ASCII
DATASET UNSTRUCTURED_GRID
POINTS 4496 float
-4.3633327e-01 9.6409470e-01 4.4200001e+01 
-4.3633258e-01 9.6409065e-01 4.4074627e+01 
-3.2152572e-01 9.1279918e-01 4.4200001e+01 
-3.8534868e-01 8.4052670e-01 4.4200001e+01 
-3.9589554e-01 8.5545403e-01 4.4010014e+01 
-3.2616228e-01 9.1667932e-01 4.4011734e+01 
-4.3633190e-01 9.6408653e-01 4.3948376e+01 
-2.1293370e-01 8.4677851e-01 4.4200001e+01 
-2.9042658e-01 7.3813015e-01 4.4200001e+01 
-2.1010752e-01 8.4669363e-01 4.4073502e+01 
-2.8908840e-01 7.3604190e-01 4.4072292e+01 
-3.9589015e-01 8.5505831e-01 4.3883316e+01 
-3.2487559e-01 9.1697580e-01 4.3885036e+01 
-2.0722924e-01 8.4660655e-01 4.3944645e+01 
-1.1981077e-01 7.7773046e-01 4.4200001e+01 
-2.8772619e-01 7.3391593e-01 4.3942276e+01 
-4.3633121e-01 9.6408242e-01 4.3821228e+01 
-1.9739023e-01 6.6468561e-01 4.4200001e+01 
-2.9444304e-01 7.8727525e-01 4.3879974e+01 
-8.7554991e-02 7.5255024e-01 4.4042213e+01 
-1.6445170e-01 6.4084798e-01 4.4041008e+01 
-3.2357255e-01 9.1726828e-01 4.3757431e+01 
-3.9587301e-01 8.5463828e-01 4.3755711e+01 
-2.0429766e-01 8.4651643e-01 4.3813354e+01 
-2.8633916e-01 7.3175091e-01 4.3809875e+01 
-2.6899619e-02 6.8901783e-01 4.4200001e+01 
-1.0567340e-01 7.7152997e-01 4.3875790e+01 
-4.3633053e-01 9.6407831e-01 4.3693161e+01 
-8.7133333e-02 5.9509218e-01 4.4200001e+01 
-1.8777622e-01 6.5475601e-01 4.3873402e+01 
-2.0131156e-01 8.4642249e-01 4.3679543e+01 
-3.2225290e-01 9.1755641e-01 4.3628902e+01 
-3.9584404e-01 8.5419410e-01 4.3627178e+01 
-1.0114321e-03 6.6670936e-01 4.3939713e+01 
-2.8492665e-01 7.2954547e-01 4.3675007e+01 
-1.0131179e-01 7.7015632e-01 4.3743176e+01 
-6.0682178e-02 5.7631296e-01 4.3938457e+01 
3.9444737e-02 6.2338209e-01 4.4053139e+01 
-1.8470748e-01 6.5131217e-01 4.3739727e+01 
-7.0938184e-03 5.4737431e-01 4.4052326e+01 
-4.3632981e-01 9.6407413e-01 4.3564159e+01 
7.6947339e-02 5.8804804e-01 4.4200001e+01 
-1.2721874e-02 6.8194175e-01 4.3817982e+01 
-7.7214435e-02 5.8474159e-01 4.3819649e+01 
4.0195532e-02 5.2425718e-01 4.4200001e+01 
-1.9826968e-01 8.4632379e-01 4.3543118e+01 
-9.6842363e-02 7.6872379e-01 4.3607994e+01 
-3.2091641e-01 9.1783977e-01 4.3499420e+01 
-3.9580306e-01 8.5372573e-01 4.3497700e+01 
-2.8348783e-01 7.2729832e-01 4.3537586e+01 
-1.8155001e-01 6.4778340e-01 4.3603539e+01 
1.5678726e-01 5.2239102e-01 4.4060219e+01 
1.0298219e-02 6.6009766e-01 4.3674484e+01 
1.3250886e-01 4.7546524e-01 4.4058990e+01 
-4.3632913e-01 9.6407002e-01 4.3434200e+01 
-5.0139543e-02 5.6696451e-01 4.3671154e+01 
1.3504514e-01 5.4209155e-01 4.3856747e+01 
1.0361936e-01 4.8715758e-01 4.3855240e+01 
2.0846681e-01 4.8028421e-01 4.4200001e+01 
1.9279444e-01 4.4799727e-01 4.4200001e+01 
-9.2261828e-02 7.6722860e-01 4.3470158e+01 
-1.4701239e-03 6.7547697e-01 4.3552124e+01 
-1.9517080e-01 8.4621930e-01 4.3403992e+01 
-3.1956279e-01 9.1811794e-01 4.3368977e+01 
-3.9574999e-01 8.5323322e-01 4.3367252e+01 
-1.7830023e-01 6.4416617e-01 4.3464752e+01 
-6.7131944e-02 5.7555372e-01 4.3547829e+01 
-2.8202194e-01 7.2500783e-01 4.3397518e+01 
-4.3632844e-01 9.6406585e-01 4.3303261e+01 
1.5138821e-01 5.3037512e-01 4.3609200e+01 
1.2119007e-01 4.7490793e-01 4.3606068e+01 
-8.7566733e-02 7.6566672e-01 4.3329563e+01 
-1.7495437e-01 6.4045686e-01 4.3323273e+01 
-3.1819177e-01 9.1839045e-01 4.3237537e+01 
-3.9568463e-01 8.5271639e-01 4.3235813e+01 
2.2269404e-02 6.5294570e-01 4.3398811e+01 
-1.9201367e-01 8.4610778e-01 4.3262066e+01 
-3.8899176e-02 5.5709696e-01 4.3393635e+01 
-2.8052819e-01 7.2267252e-01 4.3254715e+01 
3.7877345e-01 3.8273901e-01 4.4200001e+01 
-4.3632776e-01 9.6406174e-01 4.3171322e+01 
3.9241230e-01 3.7329337e-01 4.3965439e+01 
1.0283732e-02 6.6872352e-01 4.3271511e+01 
-5.6385640e-02 5.6585240e-01 4.3265472e+01 
-8.2753494e-02 7.6403379e-01 4.3186119e+01 
-4.0345609e-01 8.6371827e-01 4.3104889e+01 
-3.1680310e-01 9.1865683e-01 4.3105087e+01 
-1.7150842e-01 6.3665158e-01 4.3179005e+01 
-1.8879703e-01 8.4598809e-01 4.3117241e+01 
-2.7900568e-01 7.2029078e-01 4.3109074e+01 
4.0610775e-01 3.6380205e-01 4.3729839e+01 
1.6776134e-01 5.1882964e-01 4.3331150e+01 
-4.3632707e-01 9.6405768e-01 4.3038357e+01 
1.4031014e-01 4.6124566e-01 4.3307755e+01 
3.4952711e-02 6.4519531e-01 4.3111935e+01 
-7.7818394e-02 7.6232505e-01 4.3039719e+01 
-3.1539652e-01 9.1891652e-01 4.2971603e+01 
-3.9551663e-01 8.5160977e-01 4.2969879e+01 
-2.6899155e-02 5.4666573e-01 4.3105160e+01 
-1.6795819e-01 6.3274628e-01 4.3031849e+01 
-1.8551964e-01 8.4585863e-01 4.2969406e+01 
4.1985780e-01 3.5425979e-01 4.3493168e+01 
-2.7745360e-01 7.1786088e-01 4.2960495e+01 
-4.3632638e-01 9.6405357e-01 4.2904346e+01 
2.2723136e-02 6.6139150e-01 4.2979332e+01 
-4.4916678e-02 5.5559248e-01 4.2971806e+01 
-3.1397179e-01 9.1916907e-01 4.2837063e+01 
-3.9541367e-01 8.5101974e-01 4.2835335e+01 
-7.2757579e-02 7.6053542e-01 4.2890255e+01 
-1.6429928e-01 6.2873662e-01 4.2881699e+01 
1.8463810e-01 5.0694346e-01 4.3035332e+01 
-1.8218029e-01 8.4571803e-01 4.2818455e+01 
1.5503895e-01 4.5003417e-01 4.3027725e+01 
-2.7587104e-01 7.1538109e-01 4.2808868e+01 
4.3366045e-01 3.4466109e-01 4.3255390e+01 
-4.3632573e-01 9.6404958e-01 4.2769268e+01 
-3.8429454e-01 8.3484912e-01 4.2710606e+01 
-3.1252861e-01 9.1941386e-01 4.2701439e+01 
4.8404284e-02 6.3678014e-01 4.2813030e+01 
-1.4070326e-02 5.3562075e-01 4.2804932e+01 
-6.7567028e-02 7.5865942e-01 4.2737610e+01 
-1.6052702e-01 6.2461799e-01 4.2728443e+01 
-1.7877772e-01 8.4556442e-01 4.2664265e+01 
-4.3632504e-01 9.6404558e-01 4.2633099e+01 
-2.7425703e-01 7.1284944e-01 4.2654083e+01 
4.4751364e-01 3.3500037e-01 4.3016472e+01 
3.5901129e-02 6.5341437e-01 4.2674721e+01 
-3.7959340e-01 8.2794034e-01 4.2568317e+01 
-3.1106678e-01 9.1965032e-01 4.2564713e+01 
-3.2659348e-02 5.4472327e-01 4.2665997e+01 
2.0396979e-01 4.9291667e-01 4.2740131e+01 
-6.2242586e-02 7.5669110e-01 4.2581669e+01 
1.7765003e-01 4.3475360e-01 4.2732578e+01 
-1.5663649e-01 6.2038553e-01 4.2571964e+01 
-4.3632439e-01 9.6404165e-01 4.2495808e+01 
-1.7531081e-01 8.4539592e-01 4.2506718e+01 
-2.7261066e-01 7.1026409e-01 4.2496017e+01 
-3.0958602e-01 9.1987789e-01 4.2426853e+01 
-3.7859210e-01 8.2613736e-01 4.2421188e+01 
4.6141517e-01 3.2527190e-01 4.2776375e+01 
6.2686495e-02 6.2762415e-01 4.2501175e+01 
-3.3570320e-04 5.2390522e-01 4.2492062e+01 
-5.6779940e-02 7.5462401e-01 4.2422298e+01 
-4.3632373e-01 9.6403772e-01 4.2357380e+01 
-1.5262254e-01 6.1603409e-01 4.2412144e+01 
-1.7177837e-01 8.4521037e-01 4.2345684e+01 
-2.7093092e-01 7.0762289e-01 4.2334549e+01 
-3.0808610e-01 9.2009580e-01 4.2287842e+01 
-3.8275370e-01 8.3137155e-01 4.2275047e+01 
4.9876589e-02 6.4471585e-01 4.2356720e+01 
-1.9539909e-02 5.3318781e-01 4.2347118e+01 
-4.3632311e-01 9.6403396e-01 4.2217781e+01 
2.1959943e-01 4.8236796e-01 4.2385345e+01 
-5.1174615e-02 7.5245124e-01 4.2259373e+01 
1.9034323e-01 4.2346162e-01 4.2378918e+01 
-1.4847966e-01 6.1155808e-01 4.2248856e+01 
4.7536272e-01 3.1546980e-01 4.2535065e+01 
-1.6817927e-01 8.4500539e-01 4.2181026e+01 
-2.6921678e-01 7.0492369e-01 4.2169544e+01 
-3.0656675e-01 9.2030340e-01 4.2147648e+01 
-3.9470181e-01 8.4769493e-01 4.2145920e+01 
7.7868804e-02 6.1763972e-01 4.2175373e+01 
-4.3632248e-01 9.6403021e-01 4.2076988e+01 
1.4390758e-02 5.1145434e-01 4.2165581e+01 
-4.5421973e-02 7.5016522e-01 4.2092751e+01 
-1.4420210e-01 6.0695171e-01 4.2081959e+01 
-3.0502778e-01 9.2049998e-01 4.2006248e+01 
-4.0175444e-01 8.5747409e-01 4.2004128e+01 
-1.6451253e-01 8.4477836e-01 4.2012604e+01 
4.8935395e-01 3.0558801e-01 4.2292507e+01 
-2.6746723e-01 7.0216429e-01 4.2000870e+01 
6.4714879e-02 6.3520777e-01 4.2024277e+01 
-4.3632188e-01 9.6402657e-01 4.1934975e+01 
-5.4755262e-03 5.2092212e-01 4.2014156e+01 
-2.3078828e-01 8.1064087e-01 4.1931458e+01 
2.3550548e-01 4.7116494e-01 4.2073269e+01 
2.0610523e-01 4.1123796e-01 4.2066772e+01 
-3.9517213e-02 7.4775779e-01 4.1922287e+01 
-1.3978374e-01 6.0220873e-01 4.1911320e+01 
-3.0346894e-01 9.2068475e-01 4.1863613e+01 
-3.9432141e-01 8.4618556e-01 4.1861881e+01 
-1.6077711e-01 8.4452641e-01 4.1840263e+01 
-2.6568118e-01 6.9934219e-01 4.1828377e+01 
-4.3632129e-01 9.6402299e-01 4.1791718e+01 
5.0338638e-01 2.9562023e-01 4.2048656e+01 
9.4028555e-02 6.0672593e-01 4.1834507e+01 
3.0205652e-02 4.9819478e-01 4.1824417e+01 
-3.8116732e-01 8.2744831e-01 4.1725647e+01 
-3.0189002e-01 9.2085695e-01 4.1719719e+01 
-3.3455357e-02 7.4522001e-01 4.1747829e+01 
-1.3521814e-01 5.9732240e-01 4.1736786e+01 
-4.3632072e-01 9.6401960e-01 4.1647179e+01 
-1.5697217e-01 8.4424627e-01 4.1663853e+01 
-2.6385748e-01 6.9645494e-01 4.1651920e+01 
8.0488607e-02 6.2478805e-01 4.1676235e+01 
2.6870471e-01 4.4547972e-01 4.1752304e+01 
9.6269641e-03 5.0785345e-01 4.1665993e+01 
2.4764967e-01 3.8646612e-01 4.1743168e+01 
-3.0029076e-01 9.2101562e-01 4.1574532e+01 
-3.9388368e-01 8.4456980e-01 4.1572796e+01 
5.1745731e-01 2.8556010e-01 4.1803486e+01 
-2.7231261e-02 7.4254233e-01 4.1569210e+01 
-1.3049847e-01 5.9228569e-01 4.1558201e+01 
-4.3632016e-01 9.6401632e-01 4.1501339e+01 
-1.5309690e-01 8.4393430e-01 4.1483204e+01 
-2.6199502e-01 6.9349992e-01 4.1471333e+01 
-2.9867104e-01 9.2115986e-01 4.1428024e+01 
-3.9364263e-01 8.4372103e-01 4.1426289e+01 
1.1125199e-01 5.9476525e-01 4.1477348e+01 
4.7217656e-02 4.8404291e-01 4.1467384e+01 
-4.3631962e-01 9.6401310e-01 4.1354160e+01 
-2.0839609e-02 7.3971421e-01 4.1386261e+01 
-1.2561750e-01 5.8709091e-01 4.1375404e+01 
5.3156406e-01 2.7540097e-01 4.1556946e+01 
-1.4915068e-01 8.4358656e-01 4.1298138e+01 
-2.9703063e-01 9.2128879e-01 4.1280167e+01 
-3.9338648e-01 8.4284443e-01 4.1278431e+01 
-2.6009262e-01 6.9047421e-01 4.1286449e+01 
2.9365057e-01 4.2687622e-01 4.1391586e+01 
9.7278498e-02 6.1333776e-01 4.1311302e+01 
2.7470219e-01 3.6807936e-01 4.1382729e+01 
2.5872495e-02 4.9389899e-01 4.1301384e+01 
-4.3631911e-01 9.6401012e-01 4.1205620e+01 
-1.4274905e-02 7.3672432e-01 4.1198803e+01 
-1.2056758e-01 5.8173001e-01 4.1188221e+01 
-2.9536936e-01 9.2140132e-01 4.1130928e+01 
[...]
POINT_DATA 4496
FIELD FieldData 5
DISPLACEMENT 3 4496  float
3.0655739e-01 2.8019398e-01 -3.5532331e-03 
3.0484733e-01 2.7846861e-01 -3.5296464e-03 
3.0660155e-01 2.8030029e-01 -4.4154651e-03 
3.0668494e-01 2.8025079e-01 -2.5504376e-03 
3.0407861e-01 2.7762547e-01 -2.5760091e-03 
3.0402997e-01 2.7770486e-01 -4.3701543e-03 
3.0312538e-01 2.7673119e-01 -3.5058898e-03 
3.0666211e-01 2.8040251e-01 -4.9904082e-03 
3.0678576e-01 2.8034437e-01 -2.4386004e-03 
3.0493653e-01 2.7866411e-01 -5.0040758e-03 
3.0504596e-01 2.7858821e-01 -2.4041829e-03 
3.0235097e-01 2.7588195e-01 -2.5468552e-03 
3.0230150e-01 2.7596241e-01 -4.3680011e-03 
3.0317885e-01 2.7689332e-01 -5.0179642e-03 
3.0672738e-01 2.8049138e-01 -5.3125364e-03 
3.0327472e-01 2.7680036e-01 -2.3691698e-03 
3.0139121e-01 2.7498150e-01 -3.4819504e-03 
3.0685574e-01 2.8043360e-01 -2.6990692e-03 
3.0236846e-01 2.7593198e-01 -2.9993851e-03 
3.0459917e-01 2.7835077e-01 -5.3771152e-03 
3.0470952e-01 2.7827683e-01 -2.7912017e-03 
3.0056071e-01 2.7420756e-01 -4.3657753e-03 
3.0061102e-01 2.7412605e-01 -2.5173929e-03 
3.0138797e-01 2.7508909e-01 -5.0320602e-03 
3.0147102e-01 2.7497974e-01 -2.3335202e-03 
3.0681375e-01 2.8058198e-01 -5.3614038e-03 
3.0231059e-01 2.7604252e-01 -5.3594019e-03 
2.9964468e-01 2.7321929e-01 -3.4578010e-03 
3.0692002e-01 2.8053769e-01 -3.2475679e-03 
3.0241066e-01 2.7594829e-01 -2.6325372e-03 
2.9956278e-01 2.7325031e-01 -5.0463374e-03 
2.9880741e-01 2.7244008e-01 -4.3635364e-03 
2.9885858e-01 2.7235758e-01 -2.4876280e-03 
3.0328488e-01 2.7702463e-01 -5.3592757e-03 
2.9963374e-01 2.7312532e-01 -2.2972564e-03 
3.0050290e-01 2.7422145e-01 -5.3751115e-03 
3.0337012e-01 2.7696329e-01 -3.3014177e-03 
3.0487463e-01 2.7862561e-01 -5.3372388e-03 
3.0059072e-01 2.7411172e-01 -2.6020617e-03 
3.0494934e-01 2.7858058e-01 -3.6565429e-03 
2.9788548e-01 2.7144441e-01 -3.4334955e-03 
3.0691227e-01 2.8068349e-01 -5.3910324e-03 
3.0160925e-01 2.7533743e-01 -5.3859469e-03 
3.0174202e-01 2.7531275e-01 -3.1693163e-03 
3.0698410e-01 2.8065708e-01 -4.0120748e-03 
2.9770210e-01 2.7137578e-01 -5.0607710e-03 
2.9866034e-01 2.7236521e-01 -5.3909649e-03 
2.9704133e-01 2.7065977e-01 -4.3612374e-03 
2.9709330e-01 2.7057621e-01 -2.4574813e-03 
2.9776180e-01 2.7123591e-01 -2.2603248e-03 
2.9873669e-01 2.7224076e-01 -2.5711735e-03 
3.0506846e-01 2.7883646e-01 -5.5521484e-03 
2.9967320e-01 2.7338490e-01 -5.3729592e-03 
3.0510426e-01 2.7880251e-01 -4.5751259e-03 
2.9611340e-01 2.6965651e-01 -3.4089286e-03 
2.9973295e-01 2.7329469e-01 -3.2667471e-03 
3.0227384e-01 2.7601472e-01 -5.4879696e-03 
3.0231500e-01 2.7597147e-01 -4.3031881e-03 
3.0701554e-01 2.8081021e-01 -5.7050483e-03 
3.0705163e-01 2.8079942e-01 -5.0470321e-03 
2.9678169e-01 2.7047268e-01 -5.4069511e-03 
2.9798904e-01 2.7168921e-01 -5.4006735e-03 
2.9580477e-01 2.6946434e-01 -5.0753644e-03 
2.9526219e-01 2.6886639e-01 -4.3588933e-03 
2.9531509e-01 2.6878184e-01 -2.4270553e-03 
2.9684740e-01 2.7033433e-01 -2.5399597e-03 
2.9804325e-01 2.7158183e-01 -3.1298373e-03 
2.9585397e-01 2.6931041e-01 -2.2227606e-03 
2.9432815e-01 2.6785553e-01 -3.3842020e-03 
2.9890805e-01 2.7262288e-01 -5.5035008e-03 
2.9892743e-01 2.7255854e-01 -4.3279170e-03 
2.9486579e-01 2.6854262e-01 -5.4229810e-03 
2.9492161e-01 2.6839119e-01 -2.5082850e-03 
2.9346985e-01 2.6705977e-01 -4.3564499e-03 
2.9352361e-01 2.6697424e-01 -2.3962674e-03 
2.9591995e-01 2.6960251e-01 -5.3861560e-03 
2.9386947e-01 2.6751474e-01 -5.0900467e-03 
2.9595724e-01 2.6948664e-01 -3.2327115e-03 
2.9390907e-01 2.6734760e-01 -2.1845337e-03 
3.0710426e-01 2.8097022e-01 -6.6891108e-03 
2.9252952e-01 2.6604104e-01 -3.3593343e-03 
3.0391324e-01 2.7775419e-01 -6.7013782e-03 
2.9416841e-01 2.6783907e-01 -5.4153772e-03 
2.9420173e-01 2.6770726e-01 -3.0905730e-03 
2.9291135e-01 2.6657376e-01 -5.4390552e-03 
2.9172778e-01 2.6516598e-01 -2.4170023e-03 
2.9166386e-01 2.6523948e-01 -4.3540560e-03 
2.9295820e-01 2.6641020e-01 -2.4763036e-03 
2.9189497e-01 2.6552579e-01 -5.1047737e-03 
2.9192591e-01 2.6534632e-01 -2.1455081e-03 
3.0070791e-01 2.7452376e-01 -6.7135524e-03 
2.9512644e-01 2.6881185e-01 -5.5160681e-03 
2.9071721e-01 2.6421297e-01 -3.3343036e-03 
2.9487115e-01 2.6847133e-01 -4.3453462e-03 
2.9201534e-01 2.6566774e-01 -5.3986106e-03 
2.9091701e-01 2.6456484e-01 -5.4551000e-03 
2.8984433e-01 2.6340559e-01 -4.3514334e-03 
2.8989980e-01 2.6331797e-01 -2.3338285e-03 
2.9203337e-01 2.6552975e-01 -3.1994677e-03 
2.9095569e-01 2.6439002e-01 -2.4438128e-03 
2.8987992e-01 2.6349595e-01 -5.1195496e-03 
2.9748806e-01 2.7127841e-01 -6.7254817e-03 
2.8990304e-01 2.6330513e-01 -2.1059217e-03 
2.8889120e-01 2.6237097e-01 -3.3088934e-03 
2.9019171e-01 2.6383188e-01 -5.4291175e-03 
2.9020756e-01 2.6367941e-01 -3.0516908e-03 
2.8801069e-01 2.6155761e-01 -4.3488173e-03 
2.8806722e-01 2.6146922e-01 -2.3022320e-03 
2.8888142e-01 2.6251447e-01 -5.4710843e-03 
2.8891310e-01 2.6232946e-01 -2.4110978e-03 
2.9110360e-01 2.6475784e-01 -5.5273827e-03 
2.8782281e-01 2.6142395e-01 -5.1342775e-03 
2.9106298e-01 2.6463282e-01 -4.3400335e-03 
2.8783935e-01 2.6122308e-01 -2.0656229e-03 
2.9425353e-01 2.6801857e-01 -6.7372816e-03 
2.8705096e-01 2.6051515e-01 -3.2834176e-03 
2.8638414e-01 2.5976700e-01 -2.2087668e-03 
2.8616300e-01 2.5969580e-01 -4.3459684e-03 
2.8794882e-01 2.6157027e-01 -5.4099760e-03 
2.8795123e-01 2.6141414e-01 -3.1672989e-03 
2.8680307e-01 2.6042134e-01 -5.4869861e-03 
2.8682861e-01 2.6022711e-01 -2.3777916e-03 
2.8572255e-01 2.5930879e-01 -5.1489943e-03 
2.8519654e-01 2.5864506e-01 -3.2576292e-03 
2.8573307e-01 2.5909811e-01 -2.0244445e-03 
2.9100406e-01 2.6474375e-01 -6.7485310e-03 
2.8604805e-01 2.5965711e-01 -5.4415567e-03 
2.8445324e-01 2.5781783e-01 -2.1516355e-03 
2.8430089e-01 2.5781950e-01 -4.3428685e-03 
2.8605017e-01 2.5948805e-01 -3.0133608e-03 
2.8709272e-01 2.6071686e-01 -5.5428948e-03 
2.8468078e-01 2.5828388e-01 -5.5028596e-03 
2.8705356e-01 2.6059571e-01 -4.3838215e-03 
2.8470117e-01 2.5808161e-01 -2.3444558e-03 
2.8332758e-01 2.5676042e-01 -3.2313846e-03 
2.8357711e-01 2.5714830e-01 -5.1637958e-03 
2.8358307e-01 2.5692964e-01 -1.9826901e-03 
2.8242385e-01 2.5592861e-01 -4.3397713e-03 
2.8245217e-01 2.5579971e-01 -2.1135460e-03 
2.8774014e-01 2.6145500e-01 -6.7592356e-03 
2.8370899e-01 2.5729889e-01 -5.4198098e-03 
2.8369981e-01 2.5712901e-01 -3.1362774e-03 
2.8251269e-01 2.5610068e-01 -5.5182534e-03 
2.8144369e-01 2.5486135e-01 -3.2051406e-03 
2.8252897e-01 2.5589147e-01 -2.3104437e-03 
2.8138524e-01 2.5494137e-01 -5.1783090e-03 
2.8138766e-01 2.5471577e-01 -1.9401516e-03 
2.8053212e-01 2.5402313e-01 -4.3364312e-03 
2.8045851e-01 2.5379139e-01 -2.1018523e-03 
2.8172556e-01 2.5530288e-01 -5.4520550e-03 
2.8171843e-01 2.5512218e-01 -2.9757153e-03 
2.7954495e-01 2.5294769e-01 -3.1786736e-03 
2.8226936e-01 2.5585717e-01 -5.5445316e-03 
2.8029734e-01 2.5387028e-01 -5.5333311e-03 
2.8224623e-01 2.5574934e-01 -4.3366416e-03 
2.8031072e-01 2.5365546e-01 -2.2761798e-03 
2.8446013e-01 2.5815025e-01 -6.7691426e-03 
2.7914524e-01 2.5268641e-01 -5.1926346e-03 
2.7914524e-01 2.5245506e-01 -1.8968725e-03 
2.7862543e-01 2.5210300e-01 -4.3328214e-03 
2.7868634e-01 2.5201002e-01 -2.1389485e-03 
2.7928370e-01 2.5284195e-01 -5.4278197e-03 
2.7763101e-01 2.5101882e-01 -3.1521190e-03 
2.7926722e-01 2.5266305e-01 -3.1070062e-03 
2.7803302e-01 2.5159103e-01 -5.5480716e-03 
2.7804497e-01 2.5137180e-01 -2.2412813e-03 
2.7670285e-01 2.5016704e-01 -4.3295664e-03 
2.7674916e-01 2.5006089e-01 -2.1510492e-03 
2.7685529e-01 2.5038165e-01 -5.2066254e-03 
2.8116515e-01 2.5483078e-01 -6.7783720e-03 
2.7685460e-01 2.5014624e-01 -1.8525564e-03 
2.7721182e-01 2.5075772e-01 -5.4603666e-03 
2.7570105e-01 2.4907444e-01 -3.1255591e-03 
2.7719989e-01 2.5057021e-01 -2.9391693e-03 
2.7579463e-01 2.4921717e-01 -3.8224084e-03 
2.7803248e-01 2.5159022e-01 -5.5488939e-03 
2.7800921e-01 2.5148174e-01 -4.3266853e-03 
2.7571806e-01 2.4926148e-01 -5.5624442e-03 
2.7572969e-01 2.4903914e-01 -2.2059765e-03 
2.7476469e-01 2.4821584e-01 -4.3259589e-03 
2.7482733e-01 2.4812110e-01 -2.0718870e-03 
2.7451372e-01 2.4802566e-01 -5.2206591e-03 
2.7451348e-01 2.4778664e-01 -1.8072489e-03 
2.7375522e-01 2.4711417e-01 -3.0983947e-03 
2.7785552e-01 2.5149783e-01 -6.7869229e-03 
2.7465943e-01 2.4818659e-01 -5.4335184e-03 
2.7464062e-01 2.4800409e-01 -3.0794474e-03 
2.7299553e-01 2.4627043e-01 -1.9694415e-03 
2.7281055e-01 2.4624892e-01 -4.3217824e-03 
2.7335018e-01 2.4687891e-01 -5.5763857e-03 
2.7336287e-01 2.4665497e-01 -2.1700743e-03 
2.7179334e-01 2.4513799e-01 -3.0706623e-03 
2.7211857e-01 2.4561593e-01 -5.2342149e-03 
2.7212000e-01 2.4537537e-01 -1.7615984e-03 
2.7249244e-01 2.4600767e-01 -5.4659196e-03 
2.7369282e-01 2.4722423e-01 -5.5886838e-03 
2.7248049e-01 2.4581857e-01 -2.9036759e-03 
2.7363166e-01 2.4708684e-01 -4.4939909e-03 
2.7083987e-01 2.4426596e-01 -4.3174969e-03 
2.7090466e-01 2.4416932e-01 -2.0029596e-03 
2.7453193e-01 2.4815263e-01 -6.7944843e-03 
2.7092788e-01 2.4444218e-01 -5.5895667e-03 
2.7094334e-01 2.4421833e-01 -2.1344763e-03 
2.6981530e-01 2.4314658e-01 -3.0428921e-03 
2.6966774e-01 2.4315125e-01 -5.2470071e-03 
2.6967260e-01 2.4291074e-01 -1.7152610e-03 
2.6885322e-01 2.4226718e-01 -4.3127858e-03 
2.6891884e-01 2.4217033e-01 -1.9683389e-03 
2.6982123e-01 2.4331820e-01 -5.4358621e-03 
2.6980600e-01 2.4313849e-01 -3.0537758e-03 
2.6782063e-01 2.4113935e-01 -3.0153843e-03 
2.6844901e-01 2.4194968e-01 -5.6018066e-03 
2.6846868e-01 2.4172726e-01 -2.0977750e-03 
2.7119142e-01 2.4479066e-01 -6.8003479e-03 
2.6715952e-01 2.4062967e-01 -5.2593704e-03 
2.6684973e-01 2.4025269e-01 -4.3082838e-03 
2.6691571e-01 2.4015455e-01 -1.9330711e-03 
2.6716915e-01 2.4039048e-01 -1.6669740e-03 
2.6881307e-01 2.4231577e-01 -5.6056874e-03 
2.6755220e-01 2.4103788e-01 -5.4677213e-03 
2.6875508e-01 2.4218450e-01 -4.5449156e-03 
2.6754710e-01 2.4085428e-01 -2.8695704e-03 
2.6580894e-01 2.3911482e-01 -2.9873133e-03 
2.6591191e-01 2.3939872e-01 -5.6137620e-03 
2.6593658e-01 2.3917960e-01 -2.0606830e-03 
2.6482874e-01 2.3822027e-01 -4.3035229e-03 
2.6489639e-01 2.3812182e-01 -1.8978071e-03 
2.6459137e-01 2.3804842e-01 -5.2711857e-03 
2.6460776e-01 2.3781268e-01 -1.6186415e-03 
2.6783636e-01 2.4141575e-01 -6.8052229e-03 
2.6377988e-01 2.3707357e-01 -2.9593592e-03 
2.6475358e-01 2.3822178e-01 -5.4349285e-03 
2.6474723e-01 2.3805073e-01 -3.0304219e-03 
2.6279071e-01 2.3617195e-01 -4.2985701e-03 
2.6285872e-01 2.3607206e-01 -1.8621106e-03 
2.6331317e-01 2.3678733e-01 -5.6240070e-03 
2.6334596e-01 2.3657347e-01 -2.0237048e-03 
2.6173341e-01 2.3501541e-01 -2.9304584e-03 
2.6196161e-01 2.3540595e-01 -5.2820742e-03 
2.6198566e-01 2.3517562e-01 -1.5688143e-03 
2.6370049e-01 2.3717618e-01 -5.6240782e-03 
2.6365194e-01 2.3705752e-01 -4.6032583e-03 
2.6212761e-01 2.3558234e-01 -5.4315999e-03 
2.6446685e-01 2.3802790e-01 -6.8090549e-03 
2.6073506e-01 2.3410587e-01 -4.2924080e-03 
2.6080441e-01 2.3400624e-01 -1.8266623e-03 
2.6212856e-01 2.3541929e-01 -3.0196444e-03 
2.6065233e-01 2.3411372e-01 -5.6336634e-03 
2.6069337e-01 2.3390682e-01 -1.9858209e-03 
2.5966951e-01 2.3294111e-01 -2.9020647e-03 
2.5926694e-01 2.3270003e-01 -5.2922806e-03 
2.5930217e-01 2.3247708e-01 -1.5182097e-03 
2.5866210e-01 2.3202448e-01 -4.2863945e-03 
2.5873160e-01 2.3192313e-01 -1.7904472e-03 
2.5943828e-01 2.3287992e-01 -5.4279161e-03 
2.5848699e-01 2.3173976e-01 -2.7077785e-03 
2.5944832e-01 2.3272656e-01 -3.0099857e-03 
2.5758785e-01 2.3084944e-01 -2.8725991e-03 
2.6107937e-01 2.3462196e-01 -6.8107252e-03 
2.5950208e-01 2.3295471e-01 -5.5895573e-03 
2.5792545e-01 2.3137581e-01 -5.6405002e-03 
2.5950119e-01 2.3287545e-01 -4.4277110e-03 
2.5797799e-01 2.3117830e-01 -1.9476519e-03 
2.5657070e-01 2.2992428e-01 -4.2793853e-03 
2.5664136e-01 2.2982332e-01 -1.7538678e-03 
2.5650722e-01 2.2992960e-01 -5.2997465e-03 
2.5655317e-01 2.2971548e-01 -1.4681572e-03 
2.5548825e-01 2.2874096e-01 -2.8439302e-03 
2.5668257e-01 2.3011237e-01 -5.4230578e-03 
2.5670314e-01 2.2997081e-01 -3.0007155e-03 
2.5513160e-01 2.2857162e-01 -5.6471555e-03 
2.5446162e-01 2.2780718e-01 -4.2728488e-03 
2.5453281e-01 2.2770554e-01 -1.7169435e-03 
2.5519642e-01 2.2838531e-01 -1.9086350e-03 
2.5767705e-01 2.3120491e-01 -6.8120775e-03 
2.5367776e-01 2.2709076e-01 -5.3082667e-03 
2.5336984e-01 2.2661391e-01 -2.8145183e-03 
2.5577265e-01 2.2916286e-01 -4.8770406e-03 
2.5572473e-01 2.2917445e-01 -5.7672532e-03 
2.5373787e-01 2.2688855e-01 -1.4148216e-03 
2.5385797e-01 2.2727725e-01 -5.4162163e-03 
2.5389045e-01 2.2714823e-01 -2.9926230e-03 
2.5233299e-01 2.2567190e-01 -4.2661545e-03 
2.5240499e-01 2.2556958e-01 -1.6797660e-03 
2.5226679e-01 2.2569767e-01 -5.6521734e-03 
2.5234690e-01 2.2552490e-01 -1.8696074e-03 
2.5123167e-01 2.2446811e-01 -2.7847774e-03 
2.5426000e-01 2.2777396e-01 -6.8098307e-03 
2.5077537e-01 2.2418061e-01 -5.3154984e-03 
2.5085253e-01 2.2399250e-01 -1.3602964e-03 
2.5018659e-01 2.2352020e-01 -4.2569791e-03 
2.5025898e-01 2.2341646e-01 -1.6432384e-03 
2.5234848e-01 2.2572695e-01 -4.8672347e-03 
2.5230187e-01 2.2573972e-01 -5.7641356e-03 
2.5091639e-01 2.2432651e-01 -5.4077562e-03 
2.5093850e-01 2.2418737e-01 -2.9670228e-03 
2.4959193e-01 2.2284324e-01 -3.0599718e-03 
2.4907799e-01 2.2230840e-01 -2.7541115e-03 
2.4935342e-01 2.2277711e-01 -5.6561748e-03 
2.4946584e-01 2.2263378e-01 -1.8099634e-03 
2.4804029e-01 2.2136757e-01 -4.2277109e-03 
2.4811374e-01 2.2126597e-01 -1.6138532e-03 
2.4785079e-01 2.2125028e-01 -5.3185271e-03 
2.5082812e-01 2.2433054e-01 -6.8058064e-03 
2.4797595e-01 2.2110809e-01 -1.3082076e-03 
2.4694116e-01 2.2016683e-01 -2.7251798e-03 
2.4792622e-01 2.2132970e-01 -5.4062610e-03 
2.4803011e-01 2.2126712e-01 -2.8703203e-03 
2.4891879e-01 2.2228855e-01 -4.8625544e-03 
2.4887356e-01 2.2230232e-01 -5.7612876e-03 
2.4674071e-01 2.1998508e-01 -3.0212235e-03 
2.4591123e-01 2.1923436e-01 -4.1981298e-03 
2.4645419e-01 2.1987247e-01 -5.6596249e-03 
2.4598373e-01 2.1913156e-01 -1.5844150e-03 
2.4661337e-01 2.1977381e-01 -1.7409393e-03 
2.4482089e-01 2.1804212e-01 -2.6948862e-03 
2.4498017e-01 2.1837594e-01 -5.3201020e-03 
2.4514766e-01 2.1827441e-01 -1.2576542e-03 
2.4739766e-01 2.2089124e-01 -6.7997514e-03 
2.4505372e-01 2.1845372e-01 -5.4103546e-03 
2.4520293e-01 2.1842994e-01 -2.7706518e-03 
2.4379699e-01 2.1711631e-01 -4.1690329e-03 
2.4387015e-01 2.1701525e-01 -1.5555476e-03 
2.4536911e-01 2.1877907e-01 -5.5586942e-03 
2.4543846e-01 2.1876962e-01 -4.3476070e-03 
2.4360783e-01 2.1702392e-01 -5.6616948e-03 
2.4380727e-01 2.1696104e-01 -1.6735392e-03 
2.4321872e-01 2.1645764e-01 -2.9704315e-03 
2.4271642e-01 2.1593557e-01 -2.6657383e-03 
2.4236596e-01 2.1548876e-01 -1.2073168e-03 
2.4215990e-01 2.1555419e-01 -5.3200610e-03 
2.4169987e-01 2.1501637e-01 -4.1388101e-03 
2.4177302e-01 2.1491686e-01 -1.5274312e-03 
2.4242079e-01 2.1564113e-01 -2.6736166e-03 
2.4223161e-01 2.1563065e-01 -5.4148301e-03 
2.4397588e-01 2.1746530e-01 -6.7931428e-03 
2.4062774e-01 2.1384594e-01 -2.6375402e-03 
2.4104694e-01 2.1419634e-01 -1.6079452e-03 
2.4081093e-01 2.1422757e-01 -5.6625893e-03 
2.4203669e-01 2.1545775e-01 -5.7532792e-03 
2.4180239e-01 2.1513531e-01 -4.4047358e-03 
2.3961826e-01 2.1293394e-01 -4.1087838e-03 
2.3965049e-01 2.1279520e-01 -1.5208590e-03 
2.3962905e-01 2.1274875e-01 -1.1555947e-03 
2.3939013e-01 2.1278527e-01 -5.3210813e-03 
2.3881283e-01 2.1205519e-01 -2.9918135e-03 
2.3855411e-01 2.1177149e-01 -2.6079016e-03 
2.3968233e-01 2.1289739e-01 -2.5802869e-03 
2.3912968e-01 2.1252461e-01 -5.3468393e-03 
2.3832934e-01 2.1147792e-01 -1.5459773e-03 
2.3806395e-01 2.1148126e-01 -5.6617642e-03 
2.3755072e-01 2.1086565e-01 -4.0775305e-03 
2.4056588e-01 2.1405533e-01 -6.7856414e-03 
2.3762326e-01 2.1076739e-01 -1.4705482e-03 
2.3729114e-01 2.1052620e-01 -2.8524001e-03 
2.3868479e-01 2.1201819e-01 -4.3820427e-03 
2.3649576e-01 2.0971450e-01 -2.5794429e-03 
2.3693340e-01 2.1005553e-01 -1.1100387e-03 
2.3666818e-01 2.1006483e-01 -5.3173774e-03 
2.3863110e-01 2.1205400e-01 -5.7456051e-03 
2.3698823e-01 2.1020178e-01 -2.4879416e-03 
2.3673649e-01 2.1013822e-01 -5.4188794e-03 
2.3549883e-01 2.0881525e-01 -4.0476657e-03 
2.3557168e-01 2.0871766e-01 -1.4426151e-03 
2.3565575e-01 2.0880550e-01 -1.4833781e-03 
2.3536441e-01 2.0878473e-01 -5.6586829e-03 
2.3475327e-01 2.0796891e-01 -2.4793718e-03 
2.3445150e-01 2.0767304e-01 -2.5510914e-03 
2.3716120e-01 2.1065299e-01 -6.7746174e-03 
2.3428148e-01 2.0740648e-01 -1.0611018e-03 
2.3399223e-01 2.0739359e-01 -5.3143450e-03 
2.3558214e-01 2.0889308e-01 -3.9778640e-03 
2.3534672e-01 2.0875049e-01 -5.4038786e-03 
2.3346077e-01 2.0678055e-01 -4.0167710e-03 
2.3433609e-01 2.0754816e-01 -2.3988816e-03 
2.3332797e-01 2.0646967e-01 -1.2933441e-03 
2.3405915e-01 2.0746599e-01 -5.4211835e-03 
2.3242085e-01 2.0564616e-01 -2.5238544e-03 
2.3302270e-01 2.0617446e-01 -1.4212080e-03 
2.3271026e-01 2.0613617e-01 -5.6544854e-03 
2.3151065e-01 2.0466423e-01 -1.3884119e-03 
2.3140351e-01 2.0471720e-01 -3.8416784e-03 
2.3167022e-01 2.0479946e-01 -1.0139265e-03 
2.3135963e-01 2.0476806e-01 -5.3098258e-03 
2.3376413e-01 2.0725934e-01 -6.7604906e-03 
2.3085645e-01 2.0412847e-01 -3.1808284e-03 
2.3172471e-01 2.0493953e-01 -2.3125631e-03 
2.3142561e-01 2.0483874e-01 -5.4227659e-03 
2.3040541e-01 2.0363581e-01 -2.4973173e-03 
2.3042990e-01 2.0358847e-01 -1.3636797e-03 
2.3184292e-01 2.0527506e-01 -5.7225036e-03 
2.3188198e-01 2.0525630e-01 -4.8281909e-03 
2.2977537e-01 2.0292567e-01 -1.2383418e-03 
2.3009846e-01 2.0352989e-01 -5.6480761e-03 
2.2961298e-01 2.0295212e-01 -4.1413638e-03 
2.3109268e-01 2.0437370e-01 -3.3356242e-03 
2.3071277e-01 2.0411973e-01 -5.2959207e-03 
2.2909740e-01 2.0223413e-01 -9.6917123e-04 
2.2877344e-01 2.0218873e-01 -5.2987547e-03 
2.2840495e-01 2.0164077e-01 -2.4700793e-03 
2.2915250e-01 2.0237041e-01 -2.2288305e-03 
2.2883780e-01 2.0225888e-01 -5.4230471e-03 
2.3037519e-01 2.0387751e-01 -6.7423540e-03 
2.2755927e-01 2.0071420e-01 -1.1630807e-03 
2.2741005e-01 2.0075788e-01 -4.1391803e-03 
2.2787683e-01 2.0104028e-01 -1.3066219e-03 
2.2753209e-01 2.0097333e-01 -5.6416164e-03 
2.2641866e-01 1.9966078e-01 -2.4425208e-03 
2.2846302e-01 2.0190561e-01 -5.7065254e-03 
2.2850044e-01 2.0188612e-01 -4.8149172e-03 
2.2656475e-01 1.9970787e-01 -9.2225370e-04 
2.2622868e-01 1.9965504e-01 -5.2908310e-03 
2.2661942e-01 1.9984251e-01 -2.1470252e-03 
2.2528195e-01 1.9863422e-01 -4.0715593e-03 
2.2603282e-01 1.9946852e-01 -5.4705949e-03 
2.2648673e-01 1.9977860e-01 -3.2213151e-03 
2.2504100e-01 1.9820412e-01 -1.1250863e-03 
2.2536148e-01 1.9853303e-01 -1.2507766e-03 
2.2500762e-01 1.9845861e-01 -5.6315386e-03 
2.2444479e-01 1.9769548e-01 -2.4156352e-03 
2.2699828e-01 2.0051047e-01 -6.7208102e-03 
2.2389282e-01 1.9718331e-01 -3.0110574e-03 
2.2406818e-01 1.9722290e-01 -8.7836967e-04 
2.2500353e-01 1.9843112e-01 -5.2565713e-03 
2.2351691e-01 1.9685778e-01 -3.7471799e-03 
2.2372538e-01 1.9716130e-01 -5.2805338e-03 
2.2356011e-01 1.9674166e-01 -1.2844733e-03 
2.2412319e-01 1.9735427e-01 -2.0672961e-03 
2.2509369e-01 1.9854838e-01 -5.6873620e-03 
2.2513014e-01 1.9852817e-01 -4.7979411e-03 
2.2378741e-01 1.9722980e-01 -5.4191127e-03 
2.2273786e-01 1.9590652e-01 -9.9821005e-04 
2.2248542e-01 1.9574527e-01 -2.3895726e-03 
2.2288263e-01 1.9606528e-01 -1.1943622e-03 
2.2252306e-01 1.9598570e-01 -5.6209541e-03 
2.2190313e-01 1.9509497e-01 -1.2846955e-03 
2.2153360e-01 1.9489023e-01 -3.8243327e-03 
2.2160855e-01 1.9477336e-01 -8.3453493e-04 
2.2126102e-01 1.9471070e-01 -5.2693160e-03 
2.2363010e-01 1.9715606e-01 -6.6982452e-03 
2.2166289e-01 1.9490342e-01 -1.9898564e-03 
2.2053905e-01 1.9380911e-01 -2.3627817e-03 
2.2107071e-01 1.9453117e-01 -5.4603149e-03 
2.2023638e-01 1.9342221e-01 -1.0296623e-03 
2.2151491e-01 1.9483553e-01 -3.2631676e-03 
2.2043958e-01 1.9363397e-01 -1.1415605e-03 
2.2016434e-01 1.9344927e-01 -2.5683884e-03 
2.1971765e-01 1.9310150e-01 -4.0731090e-03 
2.2173268e-01 1.9520426e-01 -5.6669372e-03 
2.2007763e-01 1.9355351e-01 -5.6091789e-03 
2.2176792e-01 1.9518356e-01 -4.7803652e-03 
2.1918355e-01 1.9236319e-01 -7.9345511e-04 
2.2007841e-01 1.9352838e-01 -5.1958719e-03 