# vtk DataFile Version 4.0
vtk output
ASCII
DATASET UNSTRUCTURED_GRID
POINTS 4496 float
-4.3633327e-01 9.6409470e-01 4.4200001e+01 
-4.3633258e-01 9.6409065e-01 4.4074627e+01 
-3.2152572e-01 9.1279918e-01 4.4200001e+01 
-3.8534868e-01 8.4052670e-01 4.4200001e+01 
-3.9589554e-01 8.5545403e-01 4.4010014e+01 
-3.2616228e-01 9.1667932e-01 4.4011734e+01 
-4.3633190e-01 9.6408653e-01 4.3948376e+01 
-2.1293370e-01 8.4677851e-01 4.4200001e+01 
-2.9042658e-01 7.3813015e-01 4.4200001e+01 
-2.1010752e-01 8.4669363e-01 4.4073502e+01 
-2.8908840e-01 7.3604190e-01 4.4072292e+01 
-3.9589015e-01 8.5505831e-01 4.3883316e+01 
-3.2487559e-01 9.1697580e-01 4.3885036e+01 
-2.0722924e-01 8.4660655e-01 4.3944645e+01 
-1.1981077e-01 7.7773046e-01 4.4200001e+01 
-2.8772619e-01 7.3391593e-01 4.3942276e+01 
-4.3633121e-01 9.6408242e-01 4.3821228e+01 
-1.9739023e-01 6.6468561e-01 4.4200001e+01 
-2.9444304e-01 7.8727525e-01 4.3879974e+01 
-8.7554991e-02 7.5255024e-01 4.4042213e+01 
-1.6445170e-01 6.4084798e-01 4.4041008e+01 
-3.2357255e-01 9.1726828e-01 4.3757431e+01 
-3.9587301e-01 8.5463828e-01 4.3755711e+01 
-2.0429766e-01 8.4651643e-01 4.3813354e+01 
-2.8633916e-01 7.3175091e-01 4.3809875e+01 
-2.6899619e-02 6.8901783e-01 4.4200001e+01 
-1.0567340e-01 7.7152997e-01 4.3875790e+01 
-4.3633053e-01 9.6407831e-01 4.3693161e+01 
-8.7133333e-02 5.9509218e-01 4.4200001e+01 
-1.8777622e-01 6.5475601e-01 4.3873402e+01 
-2.0131156e-01 8.4642249e-01 4.3679543e+01 
-3.2225290e-01 9.1755641e-01 4.3628902e+01 
-3.9584404e-01 8.5419410e-01 4.3627178e+01 
-1.0114321e-03 6.6670936e-01 4.3939713e+01 
-2.8492665e-01 7.2954547e-01 4.3675007e+01 
-1.0131179e-01 7.7015632e-01 4.3743176e+01 
-6.0682178e-02 5.7631296e-01 4.3938457e+01 
3.9444737e-02 6.2338209e-01 4.4053139e+01 
-1.8470748e-01 6.5131217e-01 4.3739727e+01 
-7.0938184e-03 5.4737431e-01 4.4052326e+01 
-4.3632981e-01 9.6407413e-01 4.3564159e+01 
7.6947339e-02 5.8804804e-01 4.4200001e+01 
-1.2721874e-02 6.8194175e-01 4.3817982e+01 
-7.7214435e-02 5.8474159e-01 4.3819649e+01 
4.0195532e-02 5.2425718e-01 4.4200001e+01 
-1.9826968e-01 8.4632379e-01 4.3543118e+01 
-9.6842363e-02 7.6872379e-01 4.3607994e+01 
-3.2091641e-01 9.1783977e-01 4.3499420e+01 
-3.9580306e-01 8.5372573e-01 4.3497700e+01 
-2.8348783e-01 7.2729832e-01 4.3537586e+01 
-1.8155001e-01 6.4778340e-01 4.3603539e+01 
1.5678726e-01 5.2239102e-01 4.4060219e+01 
1.0298219e-02 6.6009766e-01 4.3674484e+01 
1.3250886e-01 4.7546524e-01 4.4058990e+01 
-4.3632913e-01 9.6407002e-01 4.3434200e+01 
-5.0139543e-02 5.6696451e-01 4.3671154e+01 
1.3504514e-01 5.4209155e-01 4.3856747e+01 
1.0361936e-01 4.8715758e-01 4.3855240e+01 
2.0846681e-01 4.8028421e-01 4.4200001e+01 
1.9279444e-01 4.4799727e-01 4.4200001e+01 
-9.2261828e-02 7.6722860e-01 4.3470158e+01 
-1.4701239e-03 6.7547697e-01 4.3552124e+01 
-1.9517080e-01 8.4621930e-01 4.3403992e+01 
-3.1956279e-01 9.1811794e-01 4.3368977e+01 
-3.9574999e-01 8.5323322e-01 4.3367252e+01 
-1.7830023e-01 6.4416617e-01 4.3464752e+01 
-6.7131944e-02 5.7555372e-01 4.3547829e+01 
-2.8202194e-01 7.2500783e-01 4.3397518e+01 
-4.3632844e-01 9.6406585e-01 4.3303261e+01 
1.5138821e-01 5.3037512e-01 4.3609200e+01 
1.2119007e-01 4.7490793e-01 4.3606068e+01 
-8.7566733e-02 7.6566672e-01 4.3329563e+01 
-1.7495437e-01 6.4045686e-01 4.3323273e+01 
-3.1819177e-01 9.1839045e-01 4.3237537e+01 
-3.9568463e-01 8.5271639e-01 4.3235813e+01 
2.2269404e-02 6.5294570e-01 4.3398811e+01 
-1.9201367e-01 8.4610778e-01 4.3262066e+01 
-3.8899176e-02 5.5709696e-01 4.3393635e+01 
-2.8052819e-01 7.2267252e-01 4.3254715e+01 
3.7877345e-01 3.8273901e-01 4.4200001e+01 
-4.3632776e-01 9.6406174e-01 4.3171322e+01 
3.9241230e-01 3.7329337e-01 4.3965439e+01 
1.0283732e-02 6.6872352e-01 4.3271511e+01 
-5.6385640e-02 5.6585240e-01 4.3265472e+01 
-8.2753494e-02 7.6403379e-01 4.3186119e+01 
-4.0345609e-01 8.6371827e-01 4.3104889e+01 
-3.1680310e-01 9.1865683e-01 4.3105087e+01 
-1.7150842e-01 6.3665158e-01 4.3179005e+01 
-1.8879703e-01 8.4598809e-01 4.3117241e+01 
-2.7900568e-01 7.2029078e-01 4.3109074e+01 
4.0610775e-01 3.6380205e-01 4.3729839e+01 
1.6776134e-01 5.1882964e-01 4.3331150e+01 
-4.3632707e-01 9.6405768e-01 4.3038357e+01 
1.4031014e-01 4.6124566e-01 4.3307755e+01 
3.4952711e-02 6.4519531e-01 4.3111935e+01 
-7.7818394e-02 7.6232505e-01 4.3039719e+01 
-3.1539652e-01 9.1891652e-01 4.2971603e+01 
-3.9551663e-01 8.5160977e-01 4.2969879e+01 
-2.6899155e-02 5.4666573e-01 4.3105160e+01 
-1.6795819e-01 6.3274628e-01 4.3031849e+01 
-1.8551964e-01 8.4585863e-01 4.2969406e+01 
4.1985780e-01 3.5425979e-01 4.3493168e+01 
-2.7745360e-01 7.1786088e-01 4.2960495e+01 
-4.3632638e-01 9.6405357e-01 4.2904346e+01 
2.2723136e-02 6.6139150e-01 4.2979332e+01 
-4.4916678e-02 5.5559248e-01 4.2971806e+01 
-3.1397179e-01 9.1916907e-01 4.2837063e+01 
-3.9541367e-01 8.5101974e-01 4.2835335e+01 
-7.2757579e-02 7.6053542e-01 4.2890255e+01 
-1.6429928e-01 6.2873662e-01 4.2881699e+01 
1.8463810e-01 5.0694346e-01 4.3035332e+01 
-1.8218029e-01 8.4571803e-01 4.2818455e+01 
1.5503895e-01 4.5003417e-01 4.3027725e+01 
-2.7587104e-01 7.1538109e-01 4.2808868e+01 
4.3366045e-01 3.4466109e-01 4.3255390e+01 
-4.3632573e-01 9.6404958e-01 4.2769268e+01 
-3.8429454e-01 8.3484912e-01 4.2710606e+01 
-3.1252861e-01 9.1941386e-01 4.2701439e+01 
4.8404284e-02 6.3678014e-01 4.2813030e+01 
-1.4070326e-02 5.3562075e-01 4.2804932e+01 
-6.7567028e-02 7.5865942e-01 4.2737610e+01 
-1.6052702e-01 6.2461799e-01 4.2728443e+01 
-1.7877772e-01 8.4556442e-01 4.2664265e+01 
-4.3632504e-01 9.6404558e-01 4.2633099e+01 
-2.7425703e-01 7.1284944e-01 4.2654083e+01 
4.4751364e-01 3.3500037e-01 4.3016472e+01 
3.5901129e-02 6.5341437e-01 4.2674721e+01 
-3.7959340e-01 8.2794034e-01 4.2568317e+01 
-3.1106678e-01 9.1965032e-01 4.2564713e+01 
-3.2659348e-02 5.4472327e-01 4.2665997e+01 
2.0396979e-01 4.9291667e-01 4.2740131e+01 
-6.2242586e-02 7.5669110e-01 4.2581669e+01 
1.7765003e-01 4.3475360e-01 4.2732578e+01 
-1.5663649e-01 6.2038553e-01 4.2571964e+01 
-4.3632439e-01 9.6404165e-01 4.2495808e+01 
-1.7531081e-01 8.4539592e-01 4.2506718e+01 
-2.7261066e-01 7.1026409e-01 4.2496017e+01 
-3.0958602e-01 9.1987789e-01 4.2426853e+01 
-3.7859210e-01 8.2613736e-01 4.2421188e+01 
4.6141517e-01 3.2527190e-01 4.2776375e+01 
6.2686495e-02 6.2762415e-01 4.2501175e+01 
-3.3570320e-04 5.2390522e-01 4.2492062e+01 
-5.6779940e-02 7.5462401e-01 4.2422298e+01 
-4.3632373e-01 9.6403772e-01 4.2357380e+01 
-1.5262254e-01 6.1603409e-01 4.2412144e+01 
-1.7177837e-01 8.4521037e-01 4.2345684e+01 
-2.7093092e-01 7.0762289e-01 4.2334549e+01 
-3.0808610e-01 9.2009580e-01 4.2287842e+01 
-3.8275370e-01 8.3137155e-01 4.2275047e+01 
4.9876589e-02 6.4471585e-01 4.2356720e+01 
-1.9539909e-02 5.3318781e-01 4.2347118e+01 
-4.3632311e-01 9.6403396e-01 4.2217781e+01 
2.1959943e-01 4.8236796e-01 4.2385345e+01 
-5.1174615e-02 7.5245124e-01 4.2259373e+01 
1.9034323e-01 4.2346162e-01 4.2378918e+01 
-1.4847966e-01 6.1155808e-01 4.2248856e+01 
4.7536272e-01 3.1546980e-01 4.2535065e+01 
-1.6817927e-01 8.4500539e-01 4.2181026e+01 
-2.6921678e-01 7.0492369e-01 4.2169544e+01 
-3.0656675e-01 9.2030340e-01 4.2147648e+01 
-3.9470181e-01 8.4769493e-01 4.2145920e+01 
7.7868804e-02 6.1763972e-01 4.2175373e+01 
-4.3632248e-01 9.6403021e-01 4.2076988e+01 
1.4390758e-02 5.1145434e-01 4.2165581e+01 
-4.5421973e-02 7.5016522e-01 4.2092751e+01 
-1.4420210e-01 6.0695171e-01 4.2081959e+01 
-3.0502778e-01 9.2049998e-01 4.2006248e+01 
-4.0175444e-01 8.5747409e-01 4.2004128e+01 
-1.6451253e-01 8.4477836e-01 4.2012604e+01 
4.8935395e-01 3.0558801e-01 4.2292507e+01 
-2.6746723e-01 7.0216429e-01 4.2000870e+01 
6.4714879e-02 6.3520777e-01 4.2024277e+01 
-4.3632188e-01 9.6402657e-01 4.1934975e+01 
-5.4755262e-03 5.2092212e-01 4.2014156e+01 
-2.3078828e-01 8.1064087e-01 4.1931458e+01 
2.3550548e-01 4.7116494e-01 4.2073269e+01 
2.0610523e-01 4.1123796e-01 4.2066772e+01 
-3.9517213e-02 7.4775779e-01 4.1922287e+01 
-1.3978374e-01 6.0220873e-01 4.1911320e+01 
-3.0346894e-01 9.2068475e-01 4.1863613e+01 
-3.9432141e-01 8.4618556e-01 4.1861881e+01 
-1.6077711e-01 8.4452641e-01 4.1840263e+01 
-2.6568118e-01 6.9934219e-01 4.1828377e+01 
-4.3632129e-01 9.6402299e-01 4.1791718e+01 
5.0338638e-01 2.9562023e-01 4.2048656e+01 
9.4028555e-02 6.0672593e-01 4.1834507e+01 
3.0205652e-02 4.9819478e-01 4.1824417e+01 
-3.8116732e-01 8.2744831e-01 4.1725647e+01 
-3.0189002e-01 9.2085695e-01 4.1719719e+01 
-3.3455357e-02 7.4522001e-01 4.1747829e+01 
-1.3521814e-01 5.9732240e-01 4.1736786e+01 
-4.3632072e-01 9.6401960e-01 4.1647179e+01 
-1.5697217e-01 8.4424627e-01 4.1663853e+01 
-2.6385748e-01 6.9645494e-01 4.1651920e+01 
8.0488607e-02 6.2478805e-01 4.1676235e+01 
2.6870471e-01 4.4547972e-01 4.1752304e+01 
9.6269641e-03 5.0785345e-01 4.1665993e+01 
2.4764967e-01 3.8646612e-01 4.1743168e+01 
-3.0029076e-01 9.2101562e-01 4.1574532e+01 
-3.9388368e-01 8.4456980e-01 4.1572796e+01 
5.1745731e-01 2.8556010e-01 4.1803486e+01 
-2.7231261e-02 7.4254233e-01 4.1569210e+01 
-1.3049847e-01 5.9228569e-01 4.1558201e+01 
-4.3632016e-01 9.6401632e-01 4.1501339e+01 
-1.5309690e-01 8.4393430e-01 4.1483204e+01 
-2.6199502e-01 6.9349992e-01 4.1471333e+01 
-2.9867104e-01 9.2115986e-01 4.1428024e+01 
-3.9364263e-01 8.4372103e-01 4.1426289e+01 
1.1125199e-01 5.9476525e-01 4.1477348e+01 
4.7217656e-02 4.8404291e-01 4.1467384e+01 
-4.3631962e-01 9.6401310e-01 4.1354160e+01 
-2.0839609e-02 7.3971421e-01 4.1386261e+01 
-1.2561750e-01 5.8709091e-01 4.1375404e+01 
5.3156406e-01 2.7540097e-01 4.1556946e+01 
-1.4915068e-01 8.4358656e-01 4.1298138e+01 
-2.9703063e-01 9.2128879e-01 4.1280167e+01 
-3.9338648e-01 8.4284443e-01 4.1278431e+01 
-2.6009262e-01 6.9047421e-01 4.1286449e+01 
2.9365057e-01 4.2687622e-01 4.1391586e+01 
9.7278498e-02 6.1333776e-01 4.1311302e+01 
2.7470219e-01 3.6807936e-01 4.1382729e+01 
2.5872495e-02 4.9389899e-01 4.1301384e+01 
-4.3631911e-01 9.6401012e-01 4.1205620e+01 
-1.4274905e-02 7.3672432e-01 4.1198803e+01 
-1.2056758e-01 5.8173001e-01 4.1188221e+01 
-2.9536936e-01 9.2140132e-01 4.1130928e+01 
[...]
POINT_DATA 4496
FIELD FieldData 5
DISPLACEMENT 3 4496  float
4.0132940e-01 3.6691099e-01 -5.8351476e-03 
3.9904684e-01 3.6460826e-01 -5.7931487e-03 
4.0137178e-01 3.6701891e-01 -6.9863703e-03 
4.0146905e-01 3.6697596e-01 -4.4971132e-03 
3.9799398e-01 3.6347485e-01 -4.5152442e-03 
3.9794028e-01 3.6355633e-01 -6.9100801e-03 
3.9674830e-01 3.6228946e-01 -5.7508503e-03 
4.0143287e-01 3.6712396e-01 -7.7541606e-03 
4.0157604e-01 3.6707532e-01 -4.3483102e-03 
3.9912939e-01 3.6480299e-01 -7.7617983e-03 
3.9925319e-01 3.6473119e-01 -4.2916681e-03 
3.9568779e-01 3.6114794e-01 -4.4657052e-03 
3.9563307e-01 3.6123037e-01 -6.8965778e-03 
3.9678305e-01 3.6243877e-01 -7.7695339e-03 
4.0150017e-01 3.6721617e-01 -8.1844833e-03 
3.9688841e-01 3.6234477e-01 -4.2340350e-03 
3.9443350e-01 3.5995427e-01 -5.7082325e-03 
4.0164861e-01 3.6716822e-01 -4.6963519e-03 
3.9569131e-01 3.6118567e-01 -5.0698221e-03 
3.9865226e-01 3.6435023e-01 -8.2575725e-03 
3.9877698e-01 3.6428043e-01 -4.8061186e-03 
3.9330944e-01 3.5888791e-01 -6.8829148e-03 
3.9336517e-01 3.5880446e-01 -4.4156746e-03 
3.9439243e-01 3.6002991e-01 -7.7773412e-03 
3.9448023e-01 3.5991460e-01 -4.1753547e-03 
4.0159109e-01 3.6731160e-01 -8.2501257e-03 
3.9560255e-01 3.6127454e-01 -8.2198866e-03 
3.9210218e-01 3.5760236e-01 -5.6652608e-03 
4.0171376e-01 3.6727539e-01 -5.4288646e-03 
3.9571261e-01 3.6117947e-01 -4.5801997e-03 
3.9195597e-01 3.5757488e-01 -7.7851815e-03 
3.9096910e-01 3.5652852e-01 -6.8691480e-03 
3.9102587e-01 3.5644418e-01 -4.3651583e-03 
3.9687452e-01 3.6255676e-01 -8.2255574e-03 
3.9202726e-01 3.5743928e-01 -4.1156495e-03 
3.9318913e-01 3.5884279e-01 -8.2297437e-03 
3.9696994e-01 3.6249745e-01 -5.4789078e-03 
3.9898482e-01 3.6468250e-01 -8.2058562e-03 
3.9328244e-01 3.5872757e-01 -4.5283269e-03 
3.9906895e-01 3.6464021e-01 -5.9626428e-03 
3.8975391e-01 3.5523349e-01 -5.6220032e-03 
4.0169495e-01 3.6741862e-01 -8.2901483e-03 
3.9464188e-01 3.6030805e-01 -8.2508782e-03 
3.9479938e-01 3.6029950e-01 -5.2925684e-03 
4.0177763e-01 3.6739761e-01 -6.4497287e-03 
3.8947216e-01 3.5507217e-01 -7.7930125e-03 
3.9072913e-01 3.5636413e-01 -8.2395785e-03 
3.8861167e-01 3.5415208e-01 -6.8552312e-03 
3.8866943e-01 3.5406673e-01 -4.3140734e-03 
3.8952801e-01 3.5491726e-01 -4.0548402e-03 
3.9080673e-01 3.5622972e-01 -4.4756965e-03 
3.9921537e-01 3.6493120e-01 -8.4938006e-03 
3.9205164e-01 3.5769594e-01 -8.2216067e-03 
3.9925328e-01 3.6489552e-01 -7.1897367e-03 
3.8738844e-01 3.5284728e-01 -5.5783186e-03 
3.9211249e-01 3.5759842e-01 -5.4102619e-03 
3.9549059e-01 3.6117136e-01 -8.3909659e-03 
3.9553416e-01 3.6112586e-01 -6.8095969e-03 
4.0180242e-01 3.6755082e-01 -8.7098237e-03 
4.0184379e-01 3.6754274e-01 -7.8316284e-03 
3.8822100e-01 3.5383698e-01 -8.2493639e-03 
3.8980770e-01 3.5543594e-01 -8.2482724e-03 
3.8693938e-01 3.5252020e-01 -7.8008296e-03 
3.8623682e-01 3.5175809e-01 -6.8411622e-03 
3.8629568e-01 3.5167184e-01 -4.2625256e-03 
3.8828397e-01 3.5368451e-01 -4.4224155e-03 
3.8985980e-01 3.5531741e-01 -5.2171224e-03 
3.8698083e-01 3.5234708e-01 -3.9929692e-03 
3.8500538e-01 3.5044357e-01 -5.5343364e-03 
3.9099464e-01 3.5664013e-01 -8.3909808e-03 
3.9100894e-01 3.5656607e-01 -6.8217749e-03 
3.8566306e-01 3.5125974e-01 -8.2589872e-03 
3.8571244e-01 3.5109031e-01 -4.3683015e-03 
3.8384429e-01 3.4934649e-01 -6.8268911e-03 
3.8390422e-01 3.4925932e-01 -4.2104064e-03 
3.8703972e-01 3.5264459e-01 -8.2161371e-03 
3.8435596e-01 3.4991726e-01 -7.8085382e-03 
3.8707000e-01 3.5251319e-01 -5.3416220e-03 
3.8438419e-01 3.4972709e-01 -3.9299964e-03 
4.0189117e-01 3.6771485e-01 -1.0023878e-02 
3.8260448e-01 3.4802189e-01 -5.4900888e-03 
3.9762914e-01 3.6341897e-01 -1.0020623e-02 
3.8470590e-01 3.5029423e-01 -8.2444018e-03 
3.8472953e-01 3.5014355e-01 -5.1411064e-03 
3.8305366e-01 3.4863073e-01 -8.2684243e-03 
3.8150999e-01 3.4684792e-01 -4.2270697e-03 
3.8143361e-01 3.4691662e-01 -6.8125990e-03 
3.8309070e-01 3.4844553e-01 -4.3135565e-03 
3.8172019e-01 3.4726179e-01 -7.8160577e-03 
3.8173643e-01 3.4705573e-01 -3.8657319e-03 
3.9334804e-01 3.5910392e-01 -1.0017151e-02 
3.8594368e-01 3.5154948e-01 -8.3844867e-03 
3.8018531e-01 3.4558198e-01 -5.4455479e-03 
3.8559088e-01 3.5110608e-01 -6.8201083e-03 
3.8182560e-01 3.4738979e-01 -8.2087405e-03 
3.8039100e-01 3.4594822e-01 -8.2775829e-03 
3.7900481e-01 3.4446859e-01 -6.7979326e-03 
3.7906682e-01 3.4437951e-01 -4.1048187e-03 
3.8182968e-01 3.4722912e-01 -5.2731489e-03 
3.8041678e-01 3.4574848e-01 -4.2578960e-03 
3.7903023e-01 3.4455180e-01 -7.8234030e-03 
3.8904759e-01 3.5476911e-01 -1.0013248e-02 
3.7903571e-01 3.4433115e-01 -3.8004857e-03 
3.7774780e-01 3.4312356e-01 -5.4004178e-03 
3.7939569e-01 3.4494290e-01 -8.2382783e-03 
3.7939548e-01 3.4476495e-01 -5.0646840e-03 
3.7655720e-01 3.4200180e-01 -6.7831674e-03 
3.7662050e-01 3.4191203e-01 -4.0513994e-03 
3.7767330e-01 3.4321037e-01 -8.2863960e-03 
3.7768933e-01 3.4299752e-01 -4.2017046e-03 
3.8057080e-01 3.4613457e-01 -8.3748205e-03 
3.7628424e-01 3.4178549e-01 -7.8304214e-03 
3.8050482e-01 3.4597936e-01 -6.7896130e-03 
3.7628052e-01 3.4155202e-01 -3.7340387e-03 
3.8472760e-01 3.5041499e-01 -1.0009047e-02 
3.7529141e-01 3.4064668e-01 -5.3551313e-03 
3.7436977e-01 3.3963743e-01 -3.9163223e-03 
3.7409082e-01 3.3951652e-01 -6.7680422e-03 
3.7639526e-01 3.4191778e-01 -8.1988890e-03 
3.7637806e-01 3.4173313e-01 -5.2051605e-03 
3.7489852e-01 3.4041548e-01 -8.2948441e-03 
3.7490600e-01 3.4019077e-01 -4.1444753e-03 
3.7348062e-01 3.3896160e-01 -7.8371698e-03 
3.7281603e-01 3.3815071e-01 -5.3093471e-03 
3.7346849e-01 3.3871567e-01 -3.6661646e-03 
3.8038781e-01 3.4604108e-01 -1.0004031e-02 
3.7386253e-01 3.3936787e-01 -8.2293916e-03 
3.7179065e-01 3.3703479e-01 -3.8282527e-03 
3.7160522e-01 3.3701196e-01 -6.7525026e-03 
3.7384355e-01 3.3916810e-01 -4.9880235e-03 
3.7521341e-01 3.4073660e-01 -8.3708316e-03 
3.7206507e-01 3.3756140e-01 -8.3029829e-03 
3.7514907e-01 3.4058556e-01 -6.8234354e-03 
3.7206534e-01 3.3732644e-01 -4.0869368e-03 
3.7032124e-01 3.3563539e-01 -5.2628717e-03 
3.7061670e-01 3.3607721e-01 -7.8437505e-03 
3.7059811e-01 3.3582121e-01 -3.5972814e-03 
3.6909974e-01 3.3448792e-01 -6.7368457e-03 
3.6911920e-01 3.3434111e-01 -3.7651756e-03 
3.7602884e-01 3.4164873e-01 -9.9981986e-03 
3.7073359e-01 3.3621368e-01 -8.1859324e-03 
3.7070048e-01 3.3601081e-01 -5.1376997e-03 
3.6917052e-01 3.3464631e-01 -8.3102239e-03 
3.6780658e-01 3.3310083e-01 -5.2163093e-03 
3.6916494e-01 3.3440259e-01 -4.0282444e-03 
3.6769086e-01 3.3313096e-01 -7.8496793e-03 
3.6766720e-01 3.3286625e-01 -3.5270930e-03 
3.6657465e-01 3.3194444e-01 -6.7207930e-03 
3.6645949e-01 3.3166185e-01 -3.7373973e-03 
3.6809069e-01 3.3355331e-01 -8.2168095e-03 
3.6805892e-01 3.3333832e-01 -4.9112663e-03 
3.6527210e-01 3.3054680e-01 -5.1693786e-03 
3.6877286e-01 3.3424735e-01 -8.3433418e-03 
3.6621290e-01 3.3166823e-01 -8.3167488e-03 
3.6872992e-01 3.3411497e-01 -6.7309369e-03 
3.6620310e-01 3.3141750e-01 -3.9689634e-03 
3.7164843e-01 3.3723506e-01 -9.9911839e-03 
3.6470079e-01 3.3012056e-01 -7.8550614e-03 
3.6467355e-01 3.2984877e-01 -3.4556536e-03 
3.6402956e-01 3.2938138e-01 -6.7043039e-03 
3.6409819e-01 3.2928741e-01 -3.7760967e-03 
3.6482435e-01 3.3026192e-01 -8.1694229e-03 
3.6271742e-01 3.2797253e-01 -5.1222509e-03 
3.6478111e-01 3.3004716e-01 -5.0714989e-03 
3.6318997e-01 3.2862502e-01 -8.3225239e-03 
3.6317787e-01 3.2836881e-01 -3.9085601e-03 
3.6146343e-01 3.2679728e-01 -6.6881943e-03 
3.6151513e-01 3.2668790e-01 -3.7804765e-03 
3.6164415e-01 3.2704377e-01 -7.8596808e-03 
3.6724821e-01 3.3280203e-01 -9.9831568e-03 
3.6161557e-01 3.2676712e-01 -3.3825692e-03 
3.6206362e-01 3.2748401e-01 -8.2001677e-03 
3.6014146e-01 3.2537758e-01 -5.0750426e-03 
3.6202502e-01 3.2726014e-01 -4.8348727e-03 
3.6022356e-01 3.2551154e-01 -6.0055433e-03 
3.6311510e-01 3.2854927e-01 -8.3230929e-03 
3.6307180e-01 3.2841605e-01 -6.6916561e-03 
3.6009943e-01 3.2551470e-01 -8.3274962e-03 
3.6008659e-01 3.2525480e-01 -3.8473418e-03 
3.5887650e-01 3.2419297e-01 -6.6715451e-03 
3.5894725e-01 3.2409739e-01 -3.6631192e-03 
3.5851863e-01 3.2389864e-01 -7.8640804e-03 
3.5849026e-01 3.2361776e-01 -3.3078494e-03 
3.5754430e-01 3.2276151e-01 -5.0269384e-03 
3.6282864e-01 3.2835120e-01 -9.9741314e-03 
3.5864961e-01 3.2404542e-01 -8.1486274e-03 
3.5860294e-01 3.2382593e-01 -5.0064581e-03 
3.5649762e-01 3.2162437e-01 -3.5152528e-03 
3.5626829e-01 3.2156760e-01 -6.6540474e-03 
3.5693839e-01 3.2233366e-01 -8.3315773e-03 
3.5692659e-01 3.2207209e-01 -3.7850249e-03 
3.5492569e-01 3.2012424e-01 -4.9779834e-03 
3.5532171e-01 3.2068190e-01 -7.8675020e-03 
3.5529521e-01 3.2039958e-01 -3.2324181e-03 
3.5576218e-01 3.2114139e-01 -8.1786234e-03 
3.5731652e-01 3.2271469e-01 -8.3494950e-03 
3.5572320e-01 3.2091555e-01 -4.7587049e-03 
3.5722271e-01 3.2254025e-01 -6.8881139e-03 
3.5363802e-01 3.1892091e-01 -6.6362619e-03 
3.5371143e-01 3.1882358e-01 -3.5473390e-03 
3.5839066e-01 3.2388422e-01 -9.9637089e-03 
3.5370475e-01 3.1908044e-01 -8.3342921e-03 
3.5369638e-01 3.1881940e-01 -3.7228549e-03 
3.5228568e-01 3.1746668e-01 -4.9288948e-03 
3.5205057e-01 3.1739193e-01 -7.8695808e-03 
3.5202834e-01 3.1711027e-01 -3.1557782e-03 
3.5098654e-01 3.1625322e-01 -6.6178567e-03 
3.5106099e-01 3.1615597e-01 -3.4890901e-03 
3.5218951e-01 3.1754485e-01 -8.1220455e-03 
3.5214737e-01 3.1732908e-01 -4.9427771e-03 
3.4962356e-01 3.1478807e-01 -4.8801126e-03 
3.5039571e-01 3.1575292e-01 -8.3354311e-03 
3.5039264e-01 3.1549418e-01 -3.6588877e-03 
3.5393018e-01 3.1939504e-01 -9.9508911e-03 
3.4870300e-01 3.1402618e-01 -7.8707794e-03 
3.4831268e-01 3.1356460e-01 -6.5997066e-03 
3.4838745e-01 3.1346598e-01 -3.4299451e-03 
3.4868670e-01 3.1374684e-01 -3.0761908e-03 
3.5079968e-01 3.1615910e-01 -8.3421925e-03 
3.4916627e-01 3.1450588e-01 -8.1506958e-03 
3.5071012e-01 3.1599212e-01 -6.9262255e-03 
3.4913614e-01 3.1428745e-01 -4.6832524e-03 
3.4693873e-01 3.1208649e-01 -4.8304698e-03 
3.4700906e-01 3.1234744e-01 -8.3358651e-03 
3.4701234e-01 3.1209356e-01 -3.5940837e-03 
3.4561551e-01 3.1085211e-01 -6.5810503e-03 
3.4569243e-01 3.1075346e-01 -3.3707004e-03 
3.4527549e-01 3.1058088e-01 -7.8708101e-03 
3.4526795e-01 3.1030670e-01 -2.9962915e-03 
3.4945068e-01 3.1488901e-01 -9.9366400e-03 
3.4423086e-01 3.0936259e-01 -4.7809333e-03 
3.4542355e-01 3.1074032e-01 -8.0897724e-03 
3.4539303e-01 3.1053606e-01 -4.8808688e-03 
3.4289575e-01 3.0811855e-01 -6.5620667e-03 
3.4297302e-01 3.0801827e-01 -3.3108382e-03 
3.4354028e-01 3.0886155e-01 -8.3335824e-03 
3.4355414e-01 3.0861500e-01 -3.5291687e-03 
3.4149987e-01 3.0661631e-01 -4.7299871e-03 
3.4176603e-01 3.0705407e-01 -7.8693451e-03 
3.4176832e-01 3.0678773e-01 -2.9140499e-03 
3.4397241e-01 3.0929527e-01 -8.3353287e-03 
3.4389561e-01 3.0914438e-01 -6.9728750e-03 
3.4191775e-01 3.0721653e-01 -8.0691949e-03 
3.4495217e-01 3.1036597e-01 -9.9209519e-03 
3.4015250e-01 3.0536136e-01 -6.5413336e-03 
3.4023151e-01 3.0526179e-01 -3.2512022e-03 
3.4189695e-01 3.0702281e-01 -4.8506795e-03 
3.3998883e-01 3.0529273e-01 -8.3302455e-03 
3.4001341e-01 3.0505589e-01 -3.4626485e-03 
3.3874577e-01 3.0384853e-01 -4.6797176e-03 
3.3817011e-01 3.0344284e-01 -7.8665428e-03 
3.3818698e-01 3.0318686e-01 -2.8304437e-03 
3.3738640e-01 3.0258387e-01 -6.5207947e-03 
3.3746544e-01 3.0248237e-01 -3.1905235e-03 
3.3832759e-01 3.0360886e-01 -8.0478368e-03 
3.3711115e-01 3.0219218e-01 -4.4129891e-03 
3.3831888e-01 3.0342796e-01 -4.8215897e-03 
3.3596811e-01 3.0105790e-01 -4.6278806e-03 
3.4042990e-01 3.0581903e-01 -9.9022109e-03 
3.3837062e-01 3.0366328e-01 -8.2635246e-03 
3.3634943e-01 3.0163836e-01 -8.3226450e-03 
3.3835799e-01 3.0356812e-01 -6.7133545e-03 
3.3638909e-01 3.0141434e-01 -3.3954689e-03 
3.3459583e-01 2.9978150e-01 -6.4987871e-03 
3.3467636e-01 2.9968089e-01 -3.1292383e-03 
3.3448759e-01 2.9974568e-01 -7.8596557e-03 
3.3451846e-01 2.9950204e-01 -2.7473357e-03 
3.3316666e-01 2.9824486e-01 -4.5771035e-03 
3.3464903e-01 2.9991448e-01 -8.0245174e-03 
3.3465433e-01 2.9974926e-01 -4.7927033e-03 
3.3262089e-01 2.9789573e-01 -8.3144661e-03 
3.3178177e-01 2.9695666e-01 -6.4773699e-03 
3.3186287e-01 2.9685545e-01 -3.0674250e-03 
3.3267671e-01 2.9768705e-01 -3.3268235e-03 
3.3588839e-01 3.0125782e-01 -9.8830247e-03 
3.3071235e-01 2.9595757e-01 -7.8538675e-03 
3.3034024e-01 2.9540712e-01 -4.5252312e-03 
3.3337197e-01 2.9859456e-01 -7.2899880e-03 
3.3331513e-01 2.9860035e-01 -8.4773116e-03 
3.3076182e-01 2.9573041e-01 -2.6594258e-03 
3.3087879e-01 2.9613012e-01 -7.9982029e-03 
3.3089992e-01 2.9598147e-01 -4.7649895e-03 
3.2894173e-01 2.9410771e-01 -6.4556412e-03 
3.2902387e-01 2.9400587e-01 -3.0052012e-03 
3.2879797e-01 2.9406035e-01 -8.3036823e-03 
3.2887390e-01 2.9387003e-01 -3.2578355e-03 
3.2748762e-01 2.9254448e-01 -4.4728327e-03 
3.3132768e-01 2.9667860e-01 -9.8588783e-03 
3.2684010e-01 2.9207456e-01 -7.8459401e-03 
3.2691199e-01 2.9186678e-01 -2.5695607e-03 
3.2607827e-01 2.9123706e-01 -6.4305346e-03 
3.2616079e-01 2.9113355e-01 -2.9437963e-03 
3.2880187e-01 2.9400876e-01 -7.2560497e-03 
3.2874677e-01 2.9401600e-01 -8.4522087e-03 
3.2695302e-01 2.9219207e-01 -7.9689585e-03 
3.2696044e-01 2.9203019e-01 -4.7131781e-03 
3.2525080e-01 2.9032210e-01 -4.8297429e-03 
3.2461444e-01 2.8966355e-01 -4.4190665e-03 
3.2491118e-01 2.9016370e-01 -8.2912678e-03 
3.2503024e-01 2.9001355e-01 -3.1612245e-03 
3.2321537e-01 2.8836599e-01 -6.3785645e-03 
3.2329944e-01 2.8826532e-01 -2.8919661e-03 
3.2293853e-01 2.8816509e-01 -7.8321891e-03 
3.2674757e-01 2.9208308e-01 -9.8323133e-03 
3.2307422e-01 2.8801903e-01 -2.4831891e-03 
3.2176402e-01 2.8680688e-01 -4.3678586e-03 
3.2296506e-01 2.8819510e-01 -7.9487506e-03 
3.2308137e-01 2.8813675e-01 -4.5669274e-03 
3.2422480e-01 2.8941989e-01 -7.2290320e-03 
3.2417148e-01 2.8942847e-01 -8.4274877e-03 
3.2144812e-01 2.8651041e-01 -4.7611049e-03 
3.2037565e-01 2.8552109e-01 -6.3263765e-03 
3.2104450e-01 2.8628954e-01 -8.2782442e-03 
3.2045847e-01 2.8541857e-01 -2.8402363e-03 
3.2122552e-01 2.8619975e-01 -3.0523436e-03 
3.1893584e-01 2.8397304e-01 -4.3148808e-03 
3.1910941e-01 2.8433076e-01 -7.8168400e-03 
3.1930137e-01 2.8423932e-01 -2.3993072e-03 
3.2217005e-01 2.8749385e-01 -9.8030148e-03 
3.1913534e-01 2.8436044e-01 -7.9368865e-03 
3.1931123e-01 2.8435475e-01 -4.4172471e-03 
3.1755596e-01 2.8269655e-01 -6.2748855e-03 
3.1763974e-01 2.8259632e-01 -2.7894112e-03 
3.1950951e-01 2.8474513e-01 -8.1360945e-03 
3.1959105e-01 2.8474408e-01 -6.5214518e-03 
3.1724879e-01 2.8249076e-01 -8.2637249e-03 
3.1748304e-01 2.8244916e-01 -2.9460001e-03 
3.1675097e-01 2.8180641e-01 -4.6725078e-03 
3.1612906e-01 2.8116363e-01 -4.2636045e-03 
3.1559116e-01 2.8052419e-01 -2.3160637e-03 
3.1534791e-01 2.8056714e-01 -7.7996859e-03 
3.1475937e-01 2.7989647e-01 -6.2220152e-03 
3.1484327e-01 2.7979818e-01 -2.7397941e-03 
3.1560153e-01 2.8063768e-01 -4.2714439e-03 
3.1537309e-01 2.8059673e-01 -7.9258271e-03 
3.1760487e-01 2.8292325e-01 -9.7732171e-03 
3.1334370e-01 2.7837712e-01 -4.2137927e-03 
3.1380212e-01 2.7876309e-01 -2.8424505e-03 
3.1351945e-01 2.7876201e-01 -8.2479957e-03 
3.1504947e-01 2.8029603e-01 -8.3751269e-03 
3.1473896e-01 2.7989289e-01 -6.5757772e-03 
3.1198385e-01 2.7712017e-01 -6.1696484e-03 
3.1201440e-01 2.7697024e-01 -2.7187092e-03 
3.1194103e-01 2.7687031e-01 -2.2311690e-03 
3.1165427e-01 2.7687430e-01 -7.7844793e-03 
3.1088200e-01 2.7594101e-01 -4.6751723e-03 
3.1057861e-01 2.7561119e-01 -4.1620941e-03 
3.1195050e-01 2.7698091e-01 -4.1308803e-03 
3.1122306e-01 2.7644229e-01 -7.8161051e-03 
3.1017858e-01 2.7513909e-01 -2.7441520e-03 
3.0985713e-01 2.7510044e-01 -8.2302867e-03 
3.0922723e-01 2.7436280e-01 -6.1156694e-03 
3.1305629e-01 2.7837491e-01 -9.7424127e-03 
3.0931041e-01 2.7426597e-01 -2.6399675e-03 
3.0883533e-01 2.7388692e-01 -4.4802385e-03 
3.1058082e-01 2.7573565e-01 -6.5269349e-03 
3.0783421e-01 2.7286872e-01 -4.1121510e-03 
3.0834645e-01 2.7327928e-01 -2.1551279e-03 
3.0802491e-01 2.7324674e-01 -7.7630896e-03 
3.1050679e-01 2.7575591e-01 -8.3442815e-03 
3.0835921e-01 2.7338895e-01 -3.9919890e-03 
3.0804890e-01 2.7327570e-01 -7.8979256e-03 
3.0649176e-01 2.7162960e-01 -6.0637412e-03 
3.0657542e-01 2.7153355e-01 -2.5908959e-03 
3.0661422e-01 2.7157700e-01 -2.6452788e-03 
3.0625859e-01 2.7150580e-01 -8.2099037e-03 
3.0546504e-01 2.7049711e-01 -3.9682314e-03 
3.0510879e-01 2.7014720e-01 -4.0624342e-03 
3.0851528e-01 2.7383712e-01 -9.7067133e-03 
3.0481070e-01 2.6974776e-01 -2.0746789e-03 
3.0445734e-01 2.6968524e-01 -7.7431155e-03 
3.0645031e-01 2.7158242e-01 -5.9696082e-03 
3.0615184e-01 2.7138159e-01 -7.8690741e-03 
3.0377492e-01 2.6891768e-01 -6.0105440e-03 
3.0482420e-01 2.6985312e-01 -3.8578110e-03 
3.0357718e-01 2.6853186e-01 -2.3790640e-03 
3.0448094e-01 2.6971436e-01 -7.8848843e-03 
3.0240175e-01 2.6744533e-01 -4.0144264e-03 
3.0310437e-01 2.6807040e-01 -2.5471675e-03 
3.0272099e-01 2.6797548e-01 -8.1883911e-03 
3.0116242e-01 2.6613078e-01 -2.4954393e-03 
3.0103478e-01 2.6617214e-01 -5.7650106e-03 
3.0132958e-01 2.6627260e-01 -1.9968962e-03 
3.0094784e-01 2.6618510e-01 -7.7214246e-03 
3.0398506e-01 2.6931158e-01 -9.6671134e-03 
3.0027336e-01 2.6536721e-01 -4.8807273e-03 
3.0134395e-01 2.6637784e-01 -3.7276344e-03 
3.0097178e-01 2.6621330e-01 -7.8711985e-03 
2.9971537e-01 2.6476571e-01 -3.9674970e-03 
2.9964867e-01 2.6462436e-01 -2.4558085e-03 
3.0145401e-01 2.6671559e-01 -8.2722120e-03 
3.0149940e-01 2.6670012e-01 -7.0806732e-03 
2.9884198e-01 2.6380831e-01 -2.2855420e-03 
2.9924014e-01 2.6450175e-01 -8.1641488e-03 
2.9864392e-01 2.6380965e-01 -6.1539393e-03 
3.0047646e-01 2.6557988e-01 -5.0871973e-03 
2.9998669e-01 2.6522237e-01 -7.6973988e-03 
2.9790026e-01 2.6285341e-01 -1.9227202e-03 
2.9750085e-01 2.6274717e-01 -7.6909880e-03 
2.9704919e-01 2.6210678e-01 -3.9197658e-03 
2.9791638e-01 2.6295537e-01 -3.6013192e-03 
2.9752406e-01 2.6277593e-01 -7.8561595e-03 
2.9946688e-01 2.6480335e-01 -9.6220039e-03 
2.9588544e-01 2.6085871e-01 -2.1727670e-03 
2.9570791e-01 2.6088491e-01 -6.1381753e-03 
2.9624638e-01 2.6122901e-01 -2.3653402e-03 
2.9582044e-01 2.6109514e-01 -8.1402222e-03 
2.9440218e-01 2.5946829e-01 -3.8716341e-03 
2.9694819e-01 2.6222387e-01 -8.2304543e-03 
2.9699141e-01 2.6220733e-01 -7.0427628e-03 
2.9452503e-01 2.5948679e-01 -1.8458216e-03 
2.9410946e-01 2.5937048e-01 -7.6653808e-03 
2.9454163e-01 2.5958848e-01 -3.4777792e-03 
2.9287282e-01 2.5805649e-01 -6.0356590e-03 
2.9379341e-01 2.5906357e-01 -7.9028113e-03 
2.9433855e-01 2.5945777e-01 -4.9080187e-03 
2.9253015e-01 2.5751427e-01 -2.1079020e-03 
2.9289496e-01 2.5788864e-01 -2.2767198e-03 
2.9245701e-01 2.5774467e-01 -8.1115840e-03 
2.9177204e-01 2.5684956e-01 -3.8245714e-03 
2.9496574e-01 2.6031575e-01 -9.5724855e-03 
2.9099569e-01 2.5611576e-01 -4.6142112e-03 
2.9119825e-01 2.5617570e-01 -1.7734864e-03 
2.9237467e-01 2.5763810e-01 -7.6108216e-03 
2.9052508e-01 2.5569895e-01 -5.5932417e-03 
2.9077396e-01 2.5604752e-01 -7.6367697e-03 
2.9056847e-01 2.5557378e-01 -2.3121259e-03 
2.9121631e-01 2.5627476e-01 -3.3573599e-03 
2.9245728e-01 2.5774908e-01 -8.1846314e-03 
2.9249930e-01 2.5773153e-01 -7.0000771e-03 
2.9079697e-01 2.5607687e-01 -7.8207674e-03 
2.8945306e-01 2.5444624e-01 -1.9260367e-03 
2.8916156e-01 2.5425121e-01 -3.7787631e-03 
2.8959250e-01 2.5460145e-01 -2.1875771e-03 
2.8914729e-01 2.5445035e-01 -8.0826571e-03 
2.8836209e-01 2.5338072e-01 -2.3031444e-03 
2.8788161e-01 2.5307480e-01 -5.6845429e-03 
2.8792128e-01 2.5291219e-01 -1.7013482e-03 
2.8749076e-01 2.5278243e-01 -7.6074013e-03 
2.9047704e-01 2.5584558e-01 -9.5218262e-03 
2.8793943e-01 2.5301123e-01 -3.2402894e-03 
2.8656861e-01 2.5167188e-01 -3.7320144e-03 
2.8718451e-01 2.5248742e-01 -7.8595318e-03 
2.8612781e-01 2.5114256e-01 -1.9539644e-03 
2.8771126e-01 2.5286731e-01 -4.9349703e-03 
2.8633839e-01 2.5136325e-01 -2.1037040e-03 
2.8600216e-01 2.5112209e-01 -4.0028905e-03 
2.8545904e-01 2.5068378e-01 -6.0053044e-03 
2.8797817e-01 2.5329265e-01 -8.1371674e-03 
2.8589013e-01 2.5121075e-01 -8.0524022e-03 
2.8801867e-01 2.5327438e-01 -6.9566639e-03 
2.8469095e-01 2.4970162e-01 -1.6332674e-03 
2.8581727e-01 2.5111100e-01 -7.5007374e-03 