# vtk DataFile Version 4.0
vtk output
ASCII
DATASET UNSTRUCTURED_GRID
POINTS 4496 float
-4.3633327e-01 9.6409470e-01 4.4200001e+01 
-4.3633258e-01 9.6409065e-01 4.4074627e+01 
-3.2152572e-01 9.1279918e-01 4.4200001e+01 
-3.8534868e-01 8.4052670e-01 4.4200001e+01 
-3.9589554e-01 8.5545403e-01 4.4010014e+01 
-3.2616228e-01 9.1667932e-01 4.4011734e+01 
-4.3633190e-01 9.6408653e-01 4.3948376e+01 
-2.1293370e-01 8.4677851e-01 4.4200001e+01 
-2.9042658e-01 7.3813015e-01 4.4200001e+01 
-2.1010752e-01 8.4669363e-01 4.4073502e+01 
-2.8908840e-01 7.3604190e-01 4.4072292e+01 
-3.9589015e-01 8.5505831e-01 4.3883316e+01 
-3.2487559e-01 9.1697580e-01 4.3885036e+01 
-2.0722924e-01 8.4660655e-01 4.3944645e+01 
-1.1981077e-01 7.7773046e-01 4.4200001e+01 
-2.8772619e-01 7.3391593e-01 4.3942276e+01 
-4.3633121e-01 9.6408242e-01 4.3821228e+01 
-1.9739023e-01 6.6468561e-01 4.4200001e+01 
-2.9444304e-01 7.8727525e-01 4.3879974e+01 
-8.7554991e-02 7.5255024e-01 4.4042213e+01 
-1.6445170e-01 6.4084798e-01 4.4041008e+01 
-3.2357255e-01 9.1726828e-01 4.3757431e+01 
-3.9587301e-01 8.5463828e-01 4.3755711e+01 
-2.0429766e-01 8.4651643e-01 4.3813354e+01 
-2.8633916e-01 7.3175091e-01 4.3809875e+01 
-2.6899619e-02 6.8901783e-01 4.4200001e+01 
-1.0567340e-01 7.7152997e-01 4.3875790e+01 
-4.3633053e-01 9.6407831e-01 4.3693161e+01 
-8.7133333e-02 5.9509218e-01 4.4200001e+01 
-1.8777622e-01 6.5475601e-01 4.3873402e+01 
-2.0131156e-01 8.4642249e-01 4.3679543e+01 
-3.2225290e-01 9.1755641e-01 4.3628902e+01 
-3.9584404e-01 8.5419410e-01 4.3627178e+01 
-1.0114321e-03 6.6670936e-01 4.3939713e+01 
-2.8492665e-01 7.2954547e-01 4.3675007e+01 
-1.0131179e-01 7.7015632e-01 4.3743176e+01 
-6.0682178e-02 5.7631296e-01 4.3938457e+01 
3.9444737e-02 6.2338209e-01 4.4053139e+01 
-1.8470748e-01 6.5131217e-01 4.3739727e+01 
-7.0938184e-03 5.4737431e-01 4.4052326e+01 
-4.3632981e-01 9.6407413e-01 4.3564159e+01 
7.6947339e-02 5.8804804e-01 4.4200001e+01 
-1.2721874e-02 6.8194175e-01 4.3817982e+01 
-7.7214435e-02 5.8474159e-01 4.3819649e+01 
4.0195532e-02 5.2425718e-01 4.4200001e+01 
-1.9826968e-01 8.4632379e-01 4.3543118e+01 
-9.6842363e-02 7.6872379e-01 4.3607994e+01 
-3.2091641e-01 9.1783977e-01 4.3499420e+01 
-3.9580306e-01 8.5372573e-01 4.3497700e+01 
-2.8348783e-01 7.2729832e-01 4.3537586e+01 
-1.8155001e-01 6.4778340e-01 4.3603539e+01 
1.5678726e-01 5.2239102e-01 4.4060219e+01 
1.0298219e-02 6.6009766e-01 4.3674484e+01 
1.3250886e-01 4.7546524e-01 4.4058990e+01 
-4.3632913e-01 9.6407002e-01 4.3434200e+01 
-5.0139543e-02 5.6696451e-01 4.3671154e+01 
1.3504514e-01 5.4209155e-01 4.3856747e+01 
1.0361936e-01 4.8715758e-01 4.3855240e+01 
2.0846681e-01 4.8028421e-01 4.4200001e+01 
1.9279444e-01 4.4799727e-01 4.4200001e+01 
-9.2261828e-02 7.6722860e-01 4.3470158e+01 
-1.4701239e-03 6.7547697e-01 4.3552124e+01 
-1.9517080e-01 8.4621930e-01 4.3403992e+01 
-3.1956279e-01 9.1811794e-01 4.3368977e+01 
-3.9574999e-01 8.5323322e-01 4.3367252e+01 
-1.7830023e-01 6.4416617e-01 4.3464752e+01 
-6.7131944e-02 5.7555372e-01 4.3547829e+01 
-2.8202194e-01 7.2500783e-01 4.3397518e+01 
-4.3632844e-01 9.6406585e-01 4.3303261e+01 
1.5138821e-01 5.3037512e-01 4.3609200e+01 
1.2119007e-01 4.7490793e-01 4.3606068e+01 
-8.7566733e-02 7.6566672e-01 4.3329563e+01 
-1.7495437e-01 6.4045686e-01 4.3323273e+01 
-3.1819177e-01 9.1839045e-01 4.3237537e+01 
-3.9568463e-01 8.5271639e-01 4.3235813e+01 
2.2269404e-02 6.5294570e-01 4.3398811e+01 
-1.9201367e-01 8.4610778e-01 4.3262066e+01 
-3.8899176e-02 5.5709696e-01 4.3393635e+01 
-2.8052819e-01 7.2267252e-01 4.3254715e+01 
3.7877345e-01 3.8273901e-01 4.4200001e+01 
-4.3632776e-01 9.6406174e-01 4.3171322e+01 
3.9241230e-01 3.7329337e-01 4.3965439e+01 
1.0283732e-02 6.6872352e-01 4.3271511e+01 
-5.6385640e-02 5.6585240e-01 4.3265472e+01 
-8.2753494e-02 7.6403379e-01 4.3186119e+01 
-4.0345609e-01 8.6371827e-01 4.3104889e+01 
-3.1680310e-01 9.1865683e-01 4.3105087e+01 
-1.7150842e-01 6.3665158e-01 4.3179005e+01 
-1.8879703e-01 8.4598809e-01 4.3117241e+01 
-2.7900568e-01 7.2029078e-01 4.3109074e+01 
4.0610775e-01 3.6380205e-01 4.3729839e+01 
1.6776134e-01 5.1882964e-01 4.3331150e+01 
-4.3632707e-01 9.6405768e-01 4.3038357e+01 
1.4031014e-01 4.6124566e-01 4.3307755e+01 
3.4952711e-02 6.4519531e-01 4.3111935e+01 
-7.7818394e-02 7.6232505e-01 4.3039719e+01 
-3.1539652e-01 9.1891652e-01 4.2971603e+01 
-3.9551663e-01 8.5160977e-01 4.2969879e+01 
-2.6899155e-02 5.4666573e-01 4.3105160e+01 
-1.6795819e-01 6.3274628e-01 4.3031849e+01 
-1.8551964e-01 8.4585863e-01 4.2969406e+01 
4.1985780e-01 3.5425979e-01 4.3493168e+01 
-2.7745360e-01 7.1786088e-01 4.2960495e+01 
-4.3632638e-01 9.6405357e-01 4.2904346e+01 
2.2723136e-02 6.6139150e-01 4.2979332e+01 
-4.4916678e-02 5.5559248e-01 4.2971806e+01 
-3.1397179e-01 9.1916907e-01 4.2837063e+01 
-3.9541367e-01 8.5101974e-01 4.2835335e+01 
-7.2757579e-02 7.6053542e-01 4.2890255e+01 
-1.6429928e-01 6.2873662e-01 4.2881699e+01 
1.8463810e-01 5.0694346e-01 4.3035332e+01 
-1.8218029e-01 8.4571803e-01 4.2818455e+01 
1.5503895e-01 4.5003417e-01 4.3027725e+01 
-2.7587104e-01 7.1538109e-01 4.2808868e+01 
4.3366045e-01 3.4466109e-01 4.3255390e+01 
-4.3632573e-01 9.6404958e-01 4.2769268e+01 
-3.8429454e-01 8.3484912e-01 4.2710606e+01 
-3.1252861e-01 9.1941386e-01 4.2701439e+01 
4.8404284e-02 6.3678014e-01 4.2813030e+01 
-1.4070326e-02 5.3562075e-01 4.2804932e+01 
-6.7567028e-02 7.5865942e-01 4.2737610e+01 
-1.6052702e-01 6.2461799e-01 4.2728443e+01 
-1.7877772e-01 8.4556442e-01 4.2664265e+01 
-4.3632504e-01 9.6404558e-01 4.2633099e+01 
-2.7425703e-01 7.1284944e-01 4.2654083e+01 
4.4751364e-01 3.3500037e-01 4.3016472e+01 
3.5901129e-02 6.5341437e-01 4.2674721e+01 
-3.7959340e-01 8.2794034e-01 4.2568317e+01 
-3.1106678e-01 9.1965032e-01 4.2564713e+01 
-3.2659348e-02 5.4472327e-01 4.2665997e+01 
2.0396979e-01 4.9291667e-01 4.2740131e+01 
-6.2242586e-02 7.5669110e-01 4.2581669e+01 
1.7765003e-01 4.3475360e-01 4.2732578e+01 
-1.5663649e-01 6.2038553e-01 4.2571964e+01 
-4.3632439e-01 9.6404165e-01 4.2495808e+01 
-1.7531081e-01 8.4539592e-01 4.2506718e+01 
-2.7261066e-01 7.1026409e-01 4.2496017e+01 
-3.0958602e-01 9.1987789e-01 4.2426853e+01 
-3.7859210e-01 8.2613736e-01 4.2421188e+01 
4.6141517e-01 3.2527190e-01 4.2776375e+01 
6.2686495e-02 6.2762415e-01 4.2501175e+01 
-3.3570320e-04 5.2390522e-01 4.2492062e+01 
-5.6779940e-02 7.5462401e-01 4.2422298e+01 
-4.3632373e-01 9.6403772e-01 4.2357380e+01 
-1.5262254e-01 6.1603409e-01 4.2412144e+01 
-1.7177837e-01 8.4521037e-01 4.2345684e+01 
-2.7093092e-01 7.0762289e-01 4.2334549e+01 
-3.0808610e-01 9.2009580e-01 4.2287842e+01 
-3.8275370e-01 8.3137155e-01 4.2275047e+01 
4.9876589e-02 6.4471585e-01 4.2356720e+01 
-1.9539909e-02 5.3318781e-01 4.2347118e+01 
-4.3632311e-01 9.6403396e-01 4.2217781e+01 
2.1959943e-01 4.8236796e-01 4.2385345e+01 
-5.1174615e-02 7.5245124e-01 4.2259373e+01 
1.9034323e-01 4.2346162e-01 4.2378918e+01 
-1.4847966e-01 6.1155808e-01 4.2248856e+01 
4.7536272e-01 3.1546980e-01 4.2535065e+01 
-1.6817927e-01 8.4500539e-01 4.2181026e+01 
-2.6921678e-01 7.0492369e-01 4.2169544e+01 
-3.0656675e-01 9.2030340e-01 4.2147648e+01 
-3.9470181e-01 8.4769493e-01 4.2145920e+01 
7.7868804e-02 6.1763972e-01 4.2175373e+01 
-4.3632248e-01 9.6403021e-01 4.2076988e+01 
1.4390758e-02 5.1145434e-01 4.2165581e+01 
-4.5421973e-02 7.5016522e-01 4.2092751e+01 
-1.4420210e-01 6.0695171e-01 4.2081959e+01 
-3.0502778e-01 9.2049998e-01 4.2006248e+01 
-4.0175444e-01 8.5747409e-01 4.2004128e+01 
-1.6451253e-01 8.4477836e-01 4.2012604e+01 
4.8935395e-01 3.0558801e-01 4.2292507e+01 
-2.6746723e-01 7.0216429e-01 4.2000870e+01 
6.4714879e-02 6.3520777e-01 4.2024277e+01 
-4.3632188e-01 9.6402657e-01 4.1934975e+01 
-5.4755262e-03 5.2092212e-01 4.2014156e+01 
-2.3078828e-01 8.1064087e-01 4.1931458e+01 
2.3550548e-01 4.7116494e-01 4.2073269e+01 
2.0610523e-01 4.1123796e-01 4.2066772e+01 
-3.9517213e-02 7.4775779e-01 4.1922287e+01 
-1.3978374e-01 6.0220873e-01 4.1911320e+01 
-3.0346894e-01 9.2068475e-01 4.1863613e+01 
-3.9432141e-01 8.4618556e-01 4.1861881e+01 
-1.6077711e-01 8.4452641e-01 4.1840263e+01 
-2.6568118e-01 6.9934219e-01 4.1828377e+01 
-4.3632129e-01 9.6402299e-01 4.1791718e+01 
5.0338638e-01 2.9562023e-01 4.2048656e+01 
9.4028555e-02 6.0672593e-01 4.1834507e+01 
3.0205652e-02 4.9819478e-01 4.1824417e+01 
-3.8116732e-01 8.2744831e-01 4.1725647e+01 
-3.0189002e-01 9.2085695e-01 4.1719719e+01 
-3.3455357e-02 7.4522001e-01 4.1747829e+01 
-1.3521814e-01 5.9732240e-01 4.1736786e+01 
-4.3632072e-01 9.6401960e-01 4.1647179e+01 
-1.5697217e-01 8.4424627e-01 4.1663853e+01 
-2.6385748e-01 6.9645494e-01 4.1651920e+01 
8.0488607e-02 6.2478805e-01 4.1676235e+01 
2.6870471e-01 4.4547972e-01 4.1752304e+01 
9.6269641e-03 5.0785345e-01 4.1665993e+01 
2.4764967e-01 3.8646612e-01 4.1743168e+01 
-3.0029076e-01 9.2101562e-01 4.1574532e+01 
-3.9388368e-01 8.4456980e-01 4.1572796e+01 
5.1745731e-01 2.8556010e-01 4.1803486e+01 
-2.7231261e-02 7.4254233e-01 4.1569210e+01 
-1.3049847e-01 5.9228569e-01 4.1558201e+01 
-4.3632016e-01 9.6401632e-01 4.1501339e+01 
-1.5309690e-01 8.4393430e-01 4.1483204e+01 
-2.6199502e-01 6.9349992e-01 4.1471333e+01 
-2.9867104e-01 9.2115986e-01 4.1428024e+01 
-3.9364263e-01 8.4372103e-01 4.1426289e+01 
1.1125199e-01 5.9476525e-01 4.1477348e+01 
4.7217656e-02 4.8404291e-01 4.1467384e+01 
-4.3631962e-01 9.6401310e-01 4.1354160e+01 
-2.0839609e-02 7.3971421e-01 4.1386261e+01 
-1.2561750e-01 5.8709091e-01 4.1375404e+01 
5.3156406e-01 2.7540097e-01 4.1556946e+01 
-1.4915068e-01 8.4358656e-01 4.1298138e+01 
-2.9703063e-01 9.2128879e-01 4.1280167e+01 
-3.9338648e-01 8.4284443e-01 4.1278431e+01 
-2.6009262e-01 6.9047421e-01 4.1286449e+01 
2.9365057e-01 4.2687622e-01 4.1391586e+01 
9.7278498e-02 6.1333776e-01 4.1311302e+01 
2.7470219e-01 3.6807936e-01 4.1382729e+01 
2.5872495e-02 4.9389899e-01 4.1301384e+01 
-4.3631911e-01 9.6401012e-01 4.1205620e+01 
-1.4274905e-02 7.3672432e-01 4.1198803e+01 
-1.2056758e-01 5.8173001e-01 4.1188221e+01 
-2.9536936e-01 9.2140132e-01 4.1130928e+01 
[...]
POINT_DATA 4496
FIELD FieldData 5
DISPLACEMENT 3 4496  float
3.7632346e-01 3.4398758e-01 -5.1724301e-03 
3.7419227e-01 3.4183773e-01 -5.1358165e-03 
3.7636653e-01 3.4409541e-01 -6.2473179e-03 
3.7645999e-01 3.4405032e-01 -3.9232434e-03 
3.7321460e-01 3.4078112e-01 -3.9441003e-03 
3.7316239e-01 3.4086245e-01 -6.1799893e-03 
3.7204620e-01 3.3967286e-01 -5.0989413e-03 
3.7642768e-01 3.4420002e-01 -6.9642202e-03 
3.7656552e-01 3.4414834e-01 -3.7843809e-03 
3.7427703e-01 3.4203333e-01 -6.9739739e-03 
3.7439686e-01 3.4195989e-01 -3.7341453e-03 
3.7106141e-01 3.3860868e-01 -3.9004749e-03 
3.7100822e-01 3.3869100e-01 -6.1700097e-03 
3.7208635e-01 3.3982626e-01 -6.9838678e-03 
3.7649462e-01 3.4429160e-01 -7.3660449e-03 
3.7218902e-01 3.3973196e-01 -3.6830329e-03 
3.6988494e-01 3.3749270e-01 -5.0617871e-03 
3.7663758e-01 3.4424049e-01 -4.1093845e-03 
3.7106881e-01 3.3864993e-01 -4.4646310e-03 
3.7383708e-01 3.4161776e-01 -7.4375751e-03 
3.7395784e-01 3.4154636e-01 -4.2151818e-03 
3.6883873e-01 3.3650413e-01 -6.1598965e-03 
3.6889285e-01 3.3642077e-01 -3.8564098e-03 
3.6985430e-01 3.3757749e-01 -6.9938791e-03 
3.6994070e-01 3.3746320e-01 -3.6309918e-03 
3.7658453e-01 3.4438592e-01 -7.4273953e-03 
3.7098861e-01 3.3874527e-01 -7.4058250e-03 
3.6770824e-01 3.3529693e-01 -5.0243204e-03 
3.7670273e-01 3.4434715e-01 -4.7933511e-03 
3.7109587e-01 3.3864984e-01 -4.0077157e-03 
3.6757949e-01 3.3528566e-01 -7.0039732e-03 
3.6665359e-01 3.3430147e-01 -6.1497069e-03 
3.6670873e-01 3.3421719e-01 -3.8119114e-03 
3.7218204e-01 3.3994821e-01 -7.4098697e-03 
3.6765051e-01 3.3515227e-01 -3.5780447e-03 
3.6873537e-01 3.3647522e-01 -7.4177785e-03 
3.7227464e-01 3.3988795e-01 -4.8455093e-03 
3.7415481e-01 3.4193507e-01 -7.3891538e-03 
3.6882704e-01 3.3636087e-01 -3.9620576e-03 
3.7423635e-01 3.4189171e-01 -5.2948133e-03 
3.6551574e-01 3.3308536e-01 -4.9866056e-03 
3.7668717e-01 3.4449169e-01 -7.4648326e-03 
3.7009668e-01 3.3784819e-01 -7.4360250e-03 
3.7024751e-01 3.3783489e-01 -4.6739876e-03 
3.7676689e-01 3.4446898e-01 -5.7465411e-03 
3.6526045e-01 3.3294928e-01 -7.0141125e-03 
3.6643866e-01 3.3416140e-01 -7.4297646e-03 
3.6445254e-01 3.3208290e-01 -6.1393953e-03 
3.6450863e-01 3.3199757e-01 -3.7668974e-03 
3.6531714e-01 3.3279777e-01 -3.5241193e-03 
3.6651573e-01 3.3402905e-01 -3.9157430e-03 
3.7437585e-01 3.4217399e-01 -7.6579195e-03 
3.6767948e-01 3.3541074e-01 -7.4116858e-03 
3.7441316e-01 3.4213862e-01 -6.4404164e-03 
3.6330718e-01 3.3085757e-01 -4.9485122e-03 
3.6773992e-01 3.3531475e-01 -4.7869640e-03 
3.7089700e-01 3.3866253e-01 -7.5661135e-03 
3.7093985e-01 3.3861735e-01 -6.0897092e-03 
3.7679377e-01 3.4462276e-01 -7.8567434e-03 
3.7683371e-01 3.4461379e-01 -7.0368219e-03 
3.6409697e-01 3.3180228e-01 -7.4417600e-03 
3.6558354e-01 3.3330014e-01 -7.4391086e-03 
3.6289573e-01 3.3056691e-01 -7.0242952e-03 
3.6223522e-01 3.2984796e-01 -6.1289640e-03 
3.6229235e-01 3.2976171e-01 -3.7214728e-03 
3.6416048e-01 3.3165297e-01 -3.8688753e-03 
3.6563605e-01 3.3318412e-01 -4.6091876e-03 
3.6293903e-01 3.3039829e-01 -3.4692567e-03 
3.6108220e-01 3.2861346e-01 -4.9101608e-03 
3.6669990e-01 3.3443302e-01 -7.5712707e-03 
3.6671549e-01 3.3436128e-01 -6.1062532e-03 
3.6170882e-01 3.2939643e-01 -7.4536591e-03 
3.6175969e-01 3.2923117e-01 -3.8212836e-03 
3.6000142e-01 3.2759655e-01 -6.1183614e-03 
3.6005956e-01 3.2750934e-01 -3.6755367e-03 
3.6300039e-01 3.3069545e-01 -7.4122995e-03 
3.6048371e-01 3.2813698e-01 -7.0344321e-03 
3.6303240e-01 3.3056769e-01 -4.7286339e-03 
3.6051473e-01 3.2795230e-01 -3.4134192e-03 
3.7688285e-01 3.4478617e-01 -9.0836957e-03 
3.5884055e-01 3.2635257e-01 -4.8715817e-03 
3.7290403e-01 3.4077626e-01 -9.0855267e-03 
3.6082053e-01 3.2850048e-01 -7.4413158e-03 
3.6084658e-01 3.2835430e-01 -4.5440686e-03 
3.5927260e-01 3.2694224e-01 -7.4654445e-03 
3.5782352e-01 3.2525766e-01 -3.6937979e-03 
3.5775062e-01 3.2532805e-01 -6.1077601e-03 
3.5931206e-01 3.2676217e-01 -3.7731580e-03 
3.5802278e-01 3.2565802e-01 -7.0444541e-03 
3.5804272e-01 3.2545841e-01 -3.3564318e-03 
3.6890745e-01 3.3674845e-01 -9.0871798e-03 
3.6198464e-01 3.2968122e-01 -7.5709815e-03 
3.5658187e-01 3.2407466e-01 -4.8327469e-03 
3.6165756e-01 3.2926485e-01 -6.1108870e-03 
3.5813257e-01 3.2579020e-01 -7.4113463e-03 
3.5678670e-01 3.2443810e-01 -7.4770292e-03 
3.5548294e-01 3.2304266e-01 -6.0968273e-03 
3.5554305e-01 3.2295352e-01 -3.5824552e-03 
3.5814020e-01 3.2563508e-01 -4.6706810e-03 
3.5681570e-01 3.2424435e-01 -3.7242363e-03 
3.5551131e-01 3.2312813e-01 -7.0543727e-03 
3.6489275e-01 3.3270213e-01 -9.0884538e-03 
3.5552123e-01 3.2291475e-01 -3.2985862e-03 
3.5430604e-01 3.2177943e-01 -4.7933827e-03 
3.5586298e-01 3.2350507e-01 -7.4416599e-03 
3.5586685e-01 3.2333338e-01 -4.4787978e-03 
3.5319766e-01 3.2073975e-01 -6.0858279e-03 
3.5325903e-01 3.2064986e-01 -3.5353606e-03 
3.5424936e-01 3.2188228e-01 -7.4883569e-03 
3.5426933e-01 3.2167616e-01 -3.6748764e-03 
3.5696876e-01 3.2462671e-01 -7.5681005e-03 
3.5294747e-01 3.2054567e-01 -7.0640510e-03 
3.5690942e-01 3.2447925e-01 -6.0882214e-03 
3.5294890e-01 3.2032022e-01 -3.2396810e-03 
3.6085981e-01 3.2863781e-01 -9.0894792e-03 
3.5201257e-01 3.1946701e-01 -4.7538900e-03 
3.5115841e-01 3.1852683e-01 -3.4118257e-03 
3.5089490e-01 3.1841955e-01 -6.0745059e-03 
3.5306290e-01 3.2068217e-01 -7.4083484e-03 
3.5305074e-01 3.2050461e-01 -4.6134167e-03 
3.5165873e-01 3.1927323e-01 -7.4994070e-03 
3.5167080e-01 3.1905594e-01 -3.6246094e-03 
3.5032985e-01 3.1790948e-01 -7.0735402e-03 
3.4970137e-01 3.1713676e-01 -4.7139530e-03 
3.5032350e-01 3.1767222e-01 -3.1795062e-03 
3.5680836e-01 3.2455495e-01 -9.0897642e-03 
3.5069725e-01 3.1830084e-01 -7.4396776e-03 
3.4875071e-01 3.1609723e-01 -3.3325322e-03 
3.4857416e-01 3.1608135e-01 -6.0628168e-03 
3.5068369e-01 3.1810874e-01 -4.4135475e-03 
3.5196748e-01 3.1958809e-01 -7.5705051e-03 
3.4901336e-01 3.1660894e-01 -7.5102341e-03 
3.5190973e-01 3.1944475e-01 -6.1259172e-03 
3.4901872e-01 3.1638196e-01 -3.5741206e-03 
3.4737208e-01 3.1478846e-01 -4.6733906e-03 
3.4765592e-01 3.1521678e-01 -7.0829419e-03 
3.4764361e-01 3.1497002e-01 -3.1184494e-03 
3.4623489e-01 3.1372496e-01 -6.0510463e-03 
3.4625649e-01 3.1358242e-01 -3.2766692e-03 
3.5273898e-01 3.2045484e-01 -9.0893069e-03 
3.4777722e-01 3.1535748e-01 -7.4027148e-03 
3.4775028e-01 3.1516290e-01 -4.5568948e-03 
3.4631091e-01 3.1388766e-01 -7.5202887e-03 
3.4502423e-01 3.1242216e-01 -4.6327687e-03 
3.4631088e-01 3.1365240e-01 -3.5226166e-03 
3.4492418e-01 3.1246629e-01 -7.0918016e-03 
3.4490716e-01 3.1221128e-01 -3.0562382e-03 
3.4387726e-01 3.1135044e-01 -6.0389247e-03 
3.4377292e-01 3.1108084e-01 -3.2537342e-03 
3.4530866e-01 3.1287301e-01 -7.4345176e-03 
3.4528327e-01 3.1266659e-01 -4.3484587e-03 
3.4265786e-01 3.1003770e-01 -4.5918208e-03 
3.4595457e-01 3.1353036e-01 -7.5521907e-03 
3.4354958e-01 3.1110755e-01 -7.5297463e-03 
3.4591681e-01 3.1340423e-01 -6.0468717e-03 
3.4354568e-01 3.1086564e-01 -3.4706269e-03 
3.4864956e-01 3.1633481e-01 -9.0877749e-03 
3.4213245e-01 3.0965593e-01 -7.1002231e-03 
3.4211218e-01 3.0939418e-01 -2.9929248e-03 
3.4150097e-01 3.0895761e-01 -6.0264147e-03 
3.4156740e-01 3.0886340e-01 -3.2925119e-03 
3.4226042e-01 3.0980155e-01 -7.3940395e-03 
3.4027261e-01 3.0763432e-01 -4.5507089e-03 
3.4222409e-01 3.0959582e-01 -4.5018168e-03 
3.4072724e-01 3.0826664e-01 -7.5385775e-03 
3.4072128e-01 3.0801952e-01 -3.4176577e-03 
3.3910504e-01 3.0654514e-01 -6.0142823e-03 
3.3915511e-01 3.0643612e-01 -3.2994966e-03 
3.3927855e-01 3.0678359e-01 -7.1080099e-03 
3.4454161e-01 3.1219667e-01 -9.0853218e-03 
3.3925709e-01 3.0651715e-01 -2.9281410e-03 
3.3968177e-01 3.0720732e-01 -7.4258507e-03 
3.3786747e-01 3.0521163e-01 -4.5095407e-03 
3.3965009e-01 3.0699253e-01 -4.2839837e-03 
3.3795300e-01 3.0534840e-01 -5.3785192e-03 
3.4067255e-01 3.0821127e-01 -7.5397464e-03 
3.4063447e-01 3.0808434e-01 -6.0166428e-03 
3.3784181e-01 3.0536306e-01 -7.5467359e-03 
3.3783522e-01 3.0511242e-01 -3.3639956e-03 
3.3668965e-01 3.0411378e-01 -6.0016634e-03 
3.3675808e-01 3.0401793e-01 -3.1928380e-03 
3.3636034e-01 3.0384743e-01 -7.1156612e-03 
3.3633915e-01 3.0357692e-01 -2.8619072e-03 
3.3544254e-01 3.0276921e-01 -4.4675581e-03 
3.4041557e-01 3.0804187e-01 -9.0819588e-03 
3.3649567e-01 3.0399844e-01 -7.3816604e-03 
3.3645624e-01 3.0378830e-01 -4.4481019e-03 
3.3447182e-01 3.0170968e-01 -3.0575676e-03 
3.3425438e-01 3.0166274e-01 -5.9882747e-03 
3.3489051e-01 3.0239347e-01 -7.5541404e-03 
3.3488497e-01 3.0214116e-01 -3.3093826e-03 
3.3299756e-01 3.0030698e-01 -4.4248039e-03 
3.3337542e-01 3.0084437e-01 -7.1224822e-03 
3.3335608e-01 3.0057240e-01 -2.7950737e-03 
3.3379874e-01 3.0128640e-01 -7.4129081e-03 
3.3525980e-01 3.0276561e-01 -7.5710402e-03 
3.3376673e-01 3.0106977e-01 -4.2200121e-03 
3.3517459e-01 3.0260077e-01 -6.2067523e-03 
3.3179855e-01 2.9919183e-01 -5.9746499e-03 
3.3186948e-01 2.9909414e-01 -3.0906263e-03 
3.3627227e-01 3.0387193e-01 -9.0773087e-03 
3.3187142e-01 2.9935649e-01 -7.5603547e-03 
3.3186910e-01 2.9910457e-01 -3.2549733e-03 
3.3053261e-01 2.9782581e-01 -4.3819449e-03 
3.3032119e-01 2.9777294e-01 -7.1281292e-03 
3.3030587e-01 2.9750144e-01 -2.7271844e-03 
3.2932287e-01 2.9670125e-01 -5.9604608e-03 
3.2939479e-01 2.9660359e-01 -3.0392215e-03 
3.3046445e-01 2.9793009e-01 -7.3642009e-03 
3.3042932e-01 2.9772341e-01 -4.3959459e-03 
3.2804701e-01 2.9532498e-01 -4.3393853e-03 
3.2878190e-01 2.9625008e-01 -7.5651766e-03 
3.2878461e-01 2.9600024e-01 -3.1989657e-03 
3.3210796e-01 2.9968125e-01 -9.0704514e-03 
3.2719558e-01 2.9463071e-01 -7.1330313e-03 
3.2682627e-01 2.9419112e-01 -5.9465179e-03 
3.2689852e-01 2.9409212e-01 -2.9869904e-03 
3.2718587e-01 2.9436126e-01 -2.6566279e-03 
3.2917589e-01 2.9664621e-01 -7.5716614e-03 
3.2764065e-01 2.9509199e-01 -7.3943431e-03 
3.2909465e-01 2.9648849e-01 -6.2497468e-03 
3.2761696e-01 2.9488227e-01 -4.1569942e-03 
3.2554016e-01 2.9280266e-01 -4.2960481e-03 
3.2561994e-01 2.9307085e-01 -7.5694211e-03 
3.2562861e-01 2.9282546e-01 -3.1422554e-03 
3.2430792e-01 2.9165873e-01 -5.9321402e-03 
3.2438216e-01 2.9155958e-01 -2.9346917e-03 
3.2399532e-01 2.9141423e-01 -7.1369461e-03 
3.2399383e-01 2.9114950e-01 -2.5858453e-03 
3.2792580e-01 2.9547474e-01 -9.0622809e-03 
3.2301179e-01 2.9025951e-01 -4.2528240e-03 
3.2414761e-01 2.9157788e-01 -7.3417542e-03 
3.2412332e-01 2.9138193e-01 -4.3457714e-03 
3.2176840e-01 2.8910661e-01 -5.9174746e-03 
3.2184303e-01 2.8900588e-01 -2.8818287e-03 
3.2238120e-01 2.8981653e-01 -7.5712334e-03 
3.2239982e-01 2.8957790e-01 -3.0855096e-03 
3.2046178e-01 2.8769544e-01 -4.2083175e-03 
3.2071847e-01 2.8812158e-01 -7.1395328e-03 
3.2072625e-01 2.8786403e-01 -2.5129614e-03 
3.2280207e-01 2.9023898e-01 -7.5730407e-03 
3.2273269e-01 2.9009643e-01 -6.3010477e-03 
3.2087448e-01 2.8828827e-01 -7.3265340e-03 
3.2372585e-01 2.9125232e-01 -9.0527795e-03 
3.1920698e-01 2.8653243e-01 -5.9012072e-03 
3.1928322e-01 2.8643230e-01 -2.8292015e-03 
3.2085928e-01 2.8810221e-01 -4.3215090e-03 
3.1906524e-01 2.8648478e-01 -7.5721312e-03 
3.1909394e-01 2.8625512e-01 -3.0273611e-03 
3.1789020e-01 2.8511131e-01 -4.1644461e-03 
3.1736088e-01 2.8475007e-01 -7.1409731e-03 
3.1738234e-01 2.8450209e-01 -2.4388852e-03 
3.1662416e-01 2.8393927e-01 -5.8851247e-03 
3.1670046e-01 2.8383723e-01 -2.7756086e-03 
3.1752253e-01 2.8492033e-01 -7.3106638e-03 
3.1637549e-01 2.8357577e-01 -3.9176452e-03 
3.1751862e-01 2.8474626e-01 -4.2983694e-03 
3.1529656e-01 2.8250575e-01 -4.1191429e-03 
3.1950366e-01 2.8700751e-01 -9.0404656e-03 
3.1757137e-01 2.8498048e-01 -7.5123468e-03 
3.1566715e-01 2.8307307e-01 -7.5691659e-03 
3.1756178e-01 2.8488931e-01 -6.0649686e-03 
3.1570995e-01 2.8285533e-01 -2.9686689e-03 
3.1401846e-01 2.8132281e-01 -5.8677038e-03 
3.1409615e-01 2.8122157e-01 -2.7214773e-03 
3.1392238e-01 2.8129831e-01 -7.1387021e-03 
3.1395698e-01 2.8106171e-01 -2.3653382e-03 
3.1268069e-01 2.7987924e-01 -4.0748334e-03 
3.1408799e-01 2.8147137e-01 -7.2930586e-03 
3.1409720e-01 2.8131193e-01 -4.2754984e-03 
3.1218576e-01 2.7957895e-01 -7.5657447e-03 
3.1139082e-01 2.7868536e-01 -5.8508455e-03 
3.1146908e-01 2.7858350e-01 -2.6668711e-03 
3.1224373e-01 2.7937546e-01 -2.9086920e-03 
3.1526339e-01 2.8274927e-01 -9.0277409e-03 
3.1039721e-01 2.7776155e-01 -7.1375365e-03 
3.1004149e-01 2.7722970e-01 -4.0295264e-03 
3.1290841e-01 2.8024983e-01 -6.6091241e-03 
3.1285399e-01 2.8025731e-01 -7.7178273e-03 
3.1044921e-01 2.7754024e-01 -2.2874086e-03 
3.1056783e-01 2.7793837e-01 -7.2727446e-03 
3.1059182e-01 2.7779445e-01 -4.2538214e-03 
3.0873892e-01 2.7602541e-01 -5.8337213e-03 
3.0881813e-01 2.7592286e-01 -2.6119002e-03 
3.0861619e-01 2.7599815e-01 -7.5599942e-03 
3.0869299e-01 2.7581173e-01 -2.8484783e-03 
3.0737779e-01 2.7455688e-01 -3.9837500e-03 
3.1100512e-01 2.7847412e-01 -9.0104174e-03 
3.0678141e-01 2.7413619e-01 -7.1344757e-03 
3.0685440e-01 2.7393281e-01 -2.2077449e-03 
3.0606505e-01 2.7334511e-01 -5.8134603e-03 
3.0614465e-01 2.7324098e-01 -2.5577075e-03 
3.0864131e-01 2.7596852e-01 -6.5825982e-03 
3.0858850e-01 2.7597740e-01 -7.6995688e-03 
3.0690232e-01 2.7426174e-01 -7.2498783e-03 
3.0691347e-01 2.7410543e-01 -4.2098248e-03 
3.0529922e-01 2.7249309e-01 -4.3198965e-03 
3.0469486e-01 2.7186689e-01 -3.9367266e-03 
3.0498680e-01 2.7235997e-01 -7.5527830e-03 
3.0510384e-01 2.7221087e-01 -2.7624955e-03 
3.0339161e-01 2.7066427e-01 -5.7681235e-03 
3.0347267e-01 2.7056277e-01 -2.5124408e-03 
3.0313820e-01 2.7048597e-01 -7.1260245e-03 
3.0672860e-01 2.7418366e-01 -8.9908456e-03 
3.0327082e-01 2.7034011e-01 -2.1312893e-03 
3.0203313e-01 2.6919958e-01 -3.8920366e-03 
3.0317816e-01 2.7052960e-01 -7.2354958e-03 
3.0329102e-01 2.7046964e-01 -4.0775314e-03 
3.0436766e-01 2.7168429e-01 -6.5625166e-03 
3.0431652e-01 2.7169442e-01 -7.6816613e-03 
3.0174813e-01 2.6893389e-01 -4.2599957e-03 
3.0073979e-01 2.6800781e-01 -5.7225362e-03 
3.0137596e-01 2.6874253e-01 -7.5449646e-03 
3.0081969e-01 2.6790467e-01 -2.4672279e-03 
3.0155092e-01 2.6864961e-01 -2.6649926e-03 
2.9939213e-01 2.6655349e-01 -3.8456782e-03 
2.9956251e-01 2.6690584e-01 -7.1159950e-03 
2.9974774e-01 2.6681089e-01 -2.0570527e-03 
3.0245441e-01 2.6989892e-01 -8.9687230e-03 
2.9960155e-01 2.6694876e-01 -7.2286832e-03 
2.9977021e-01 2.6693779e-01 -3.9419029e-03 
2.9810667e-01 2.6537034e-01 -5.6775846e-03 
2.9818740e-01 2.6526931e-01 -2.4228247e-03 
2.9996052e-01 2.6731813e-01 -7.4146939e-03 
3.0003875e-01 2.6731464e-01 -5.9068459e-03 
2.9783127e-01 2.6519534e-01 -7.5356620e-03 
2.9805604e-01 2.6514733e-01 -2.5697688e-03 
2.9736170e-01 2.6454142e-01 -4.1824244e-03 
2.9677105e-01 2.6393020e-01 -3.8008676e-03 
2.9628301e-01 2.6334187e-01 -1.9833262e-03 
2.9604989e-01 2.6339161e-01 -7.1041924e-03 
2.9549500e-01 2.6275563e-01 -5.6313137e-03 
2.9557586e-01 2.6265648e-01 -2.3795015e-03 
2.9630578e-01 2.6346648e-01 -3.8098060e-03 
2.9608789e-01 2.6343411e-01 -7.2225481e-03 
2.9819158e-01 2.6563144e-01 -8.9460779e-03 
2.9416990e-01 2.6132819e-01 -3.7573786e-03 
2.9461852e-01 2.6170519e-01 -2.4770612e-03 
2.9434845e-01 2.6171347e-01 -7.5251418e-03 
2.9579878e-01 2.6316780e-01 -7.6430691e-03 
2.9550824e-01 2.6278567e-01 -5.9630019e-03 
2.9290298e-01 2.6016307e-01 -5.5854577e-03 
2.9293373e-01 2.6001552e-01 -2.3628587e-03 
2.9287437e-01 2.5992998e-01 -1.9080036e-03 
2.9260054e-01 2.5994343e-01 -7.0940838e-03 
2.9187956e-01 2.5906336e-01 -4.1912710e-03 
2.9158765e-01 2.5874534e-01 -3.7121151e-03 
2.9289603e-01 2.6005143e-01 -3.6825286e-03 
2.9221505e-01 2.5955737e-01 -7.1248738e-03 
2.9123449e-01 2.5832099e-01 -2.3891593e-03 
2.9092818e-01 2.5829425e-01 -7.5126933e-03 
2.9032853e-01 2.5758812e-01 -5.5380869e-03 
2.9394406e-01 2.6138452e-01 -8.9224456e-03 
2.9040867e-01 2.5749037e-01 -2.2922300e-03 
2.8997180e-01 2.5714839e-01 -4.0115975e-03 
2.9162523e-01 2.5890386e-01 -5.9219934e-03 
2.8902462e-01 2.5618440e-01 -3.6684484e-03 
2.8951746e-01 2.5657669e-01 -1.8408071e-03 
2.8921112e-01 2.5655603e-01 -7.0781624e-03 
2.9155678e-01 2.5892860e-01 -7.6193595e-03 
2.8954193e-01 2.5669679e-01 -3.5567244e-03 
2.8924730e-01 2.5659728e-01 -7.2046760e-03 
2.8777382e-01 2.5503573e-01 -5.4925852e-03 
2.8785437e-01 2.5493869e-01 -2.2493387e-03 
2.8790569e-01 2.5499445e-01 -2.3006515e-03 
2.8756732e-01 2.5493741e-01 -7.4976641e-03 
2.8682148e-01 2.5397885e-01 -3.5369797e-03 
2.8647932e-01 2.5364295e-01 -3.6249713e-03 
2.8970352e-01 2.5714737e-01 -8.8942796e-03 
2.8621542e-01 2.5327882e-01 -1.7694595e-03 
2.8587928e-01 2.5323027e-01 -7.0634424e-03 
2.8776643e-01 2.5502270e-01 -5.4060267e-03 
2.8748468e-01 2.5483754e-01 -7.1802284e-03 
2.8523645e-01 2.5250310e-01 -5.4458715e-03 
2.8624034e-01 2.5339454e-01 -3.4352415e-03 
2.8505570e-01 2.5213662e-01 -2.0547521e-03 
2.8591481e-01 2.5327134e-01 -7.1964585e-03 
2.8395113e-01 2.5111979e-01 -3.5830399e-03 
2.8462765e-01 2.5171965e-01 -2.2128040e-03 
2.8426334e-01 2.5164056e-01 -7.4814931e-03 
2.8279886e-01 2.4989320e-01 -2.1659546e-03 
2.8267682e-01 2.4993815e-01 -5.2195438e-03 
2.8296429e-01 2.5003350e-01 -1.7005245e-03 
2.8260165e-01 2.4996170e-01 -7.0470525e-03 
2.8547293e-01 2.5292155e-01 -8.8624172e-03 
2.8197223e-01 2.4919052e-01 -4.3947580e-03 
2.8298983e-01 2.5014871e-01 -3.3174113e-03 
2.8263718e-01 2.5000164e-01 -7.1875611e-03 
2.8144214e-01 2.4861738e-01 -3.5420805e-03 
2.8140011e-01 2.4850135e-01 -2.1311343e-03 
2.8310281e-01 2.5048703e-01 -7.5622387e-03 
2.8314644e-01 2.5047055e-01 -6.4493474e-03 
2.8063318e-01 2.4772537e-01 -1.9724341e-03 
2.8101227e-01 2.4839652e-01 -7.4627157e-03 
2.8044477e-01 2.4773397e-01 -5.5854144e-03 
2.8218490e-01 2.4941264e-01 -4.5883525e-03 
2.8172430e-01 2.4908292e-01 -7.0266547e-03 
2.7976143e-01 2.4684042e-01 -1.6348676e-03 
2.7938226e-01 2.4675111e-01 -7.0224809e-03 
2.7895197e-01 2.4613422e-01 -3.5003396e-03 
2.7978843e-01 2.4695216e-01 -3.2030910e-03 
2.7941683e-01 2.4679130e-01 -7.1773082e-03 
2.8125334e-01 2.4871157e-01 -8.8254344e-03 
2.7787244e-01 2.4497123e-01 -1.8702359e-03 
2.7770260e-01 2.4500263e-01 -5.5738720e-03 
2.7822235e-01 2.4533027e-01 -2.0502310e-03 
2.7781817e-01 2.4521497e-01 -7.4441405e-03 
2.7647966e-01 2.4367008e-01 -3.4582142e-03 
2.7889469e-01 2.4629249e-01 -7.5282860e-03 
2.7893630e-01 2.4627498e-01 -6.4189387e-03 
2.7660897e-01 2.4369629e-01 -1.5666225e-03 
2.7621472e-01 2.4359763e-01 -7.0022782e-03 
2.7663618e-01 2.4380739e-01 -3.0913078e-03 
2.7505443e-01 2.4236079e-01 -5.4811854e-03 
2.7593088e-01 2.4332304e-01 -7.2249454e-03 
2.7645203e-01 2.4369481e-01 -4.4276505e-03 
2.7473846e-01 2.4184769e-01 -1.8131910e-03 
2.7509198e-01 2.4221051e-01 -1.9709934e-03 
2.7467656e-01 2.4208578e-01 -7.4211285e-03 
2.7402306e-01 2.4122435e-01 -3.4170474e-03 
2.7704945e-01 2.4452065e-01 -8.7842979e-03 
2.7330637e-01 2.4054968e-01 -4.1557979e-03 
2.7350172e-01 2.4060392e-01 -1.5025216e-03 
2.7461541e-01 2.4200059e-01 -6.9542374e-03 
2.7286071e-01 2.4015702e-01 -5.0704549e-03 
2.7309927e-01 2.4049424e-01 -6.9792243e-03 
2.7290383e-01 2.4003373e-01 -2.0058868e-03 
2.7353007e-01 2.4071223e-01 -2.9823554e-03 
2.7470031e-01 2.4211361e-01 -7.4904920e-03 
2.7474082e-01 2.4209519e-01 -6.3840295e-03 
2.7313304e-01 2.4053439e-01 -7.1516610e-03 
2.7186602e-01 2.3898369e-01 -1.6465865e-03 
2.7158472e-01 2.3879762e-01 -3.3770148e-03 
2.7200729e-01 2.3914027e-01 -1.8912079e-03 
2.7158502e-01 2.3900893e-01 -7.3977564e-03 
2.7084270e-01 2.3798533e-01 -1.9997980e-03 
2.7039179e-01 2.3770674e-01 -5.1585850e-03 
2.7044085e-01 2.3755594e-01 -1.4385664e-03 
2.7003255e-01 2.3744480e-01 -6.9553549e-03 
2.7285701e-01 2.4034591e-01 -8.7420456e-03 
2.7046907e-01 2.3766385e-01 -2.8764585e-03 
2.6916271e-01 2.3638859e-01 -3.3360929e-03 
2.6975736e-01 2.3718078e-01 -7.1917898e-03 
2.6875854e-01 2.3589692e-01 -1.6760962e-03 
2.7026248e-01 2.3754059e-01 -4.4599865e-03 
2.6896763e-01 2.3611568e-01 -1.8162401e-03 
2.6864746e-01 2.3588961e-01 -3.5903426e-03 
2.6812965e-01 2.3547527e-01 -5.4608486e-03 
2.7051687e-01 2.3795170e-01 -7.4511506e-03 
2.6854247e-01 2.3598312e-01 -7.3730787e-03 
2.7055588e-01 2.3793261e-01 -6.3484204e-03 
2.6742345e-01 2.3455729e-01 -1.3783104e-03 
2.6848954e-01 2.3590355e-01 -6.8585882e-03 