# vtk DataFile Version 4.0
vtk output
ASCII
DATASET UNSTRUCTURED_GRID
POINTS 4496 float
-4.3633327e-01 9.6409470e-01 4.4200001e+01 
-4.3633258e-01 9.6409065e-01 4.4074627e+01 
-3.2152572e-01 9.1279918e-01 4.4200001e+01 
-3.8534868e-01 8.4052670e-01 4.4200001e+01 
-3.9589554e-01 8.5545403e-01 4.4010014e+01 
-3.2616228e-01 9.1667932e-01 4.4011734e+01 
-4.3633190e-01 9.6408653e-01 4.3948376e+01 
-2.1293370e-01 8.4677851e-01 4.4200001e+01 
-2.9042658e-01 7.3813015e-01 4.4200001e+01 
-2.1010752e-01 8.4669363e-01 4.4073502e+01 
-2.8908840e-01 7.3604190e-01 4.4072292e+01 
-3.9589015e-01 8.5505831e-01 4.3883316e+01 
-3.2487559e-01 9.1697580e-01 4.3885036e+01 
-2.0722924e-01 8.4660655e-01 4.3944645e+01 
-1.1981077e-01 7.7773046e-01 4.4200001e+01 
-2.8772619e-01 7.3391593e-01 4.3942276e+01 
-4.3633121e-01 9.6408242e-01 4.3821228e+01 
-1.9739023e-01 6.6468561e-01 4.4200001e+01 
-2.9444304e-01 7.8727525e-01 4.3879974e+01 
-8.7554991e-02 7.5255024e-01 4.4042213e+01 
-1.6445170e-01 6.4084798e-01 4.4041008e+01 
-3.2357255e-01 9.1726828e-01 4.3757431e+01 
-3.9587301e-01 8.5463828e-01 4.3755711e+01 
-2.0429766e-01 8.4651643e-01 4.3813354e+01 
-2.8633916e-01 7.3175091e-01 4.3809875e+01 
-2.6899619e-02 6.8901783e-01 4.4200001e+01 
-1.0567340e-01 7.7152997e-01 4.3875790e+01 
-4.3633053e-01 9.6407831e-01 4.3693161e+01 
-8.7133333e-02 5.9509218e-01 4.4200001e+01 
-1.8777622e-01 6.5475601e-01 4.3873402e+01 
-2.0131156e-01 8.4642249e-01 4.3679543e+01 
-3.2225290e-01 9.1755641e-01 4.3628902e+01 
-3.9584404e-01 8.5419410e-01 4.3627178e+01 
-1.0114321e-03 6.6670936e-01 4.3939713e+01 
-2.8492665e-01 7.2954547e-01 4.3675007e+01 
-1.0131179e-01 7.7015632e-01 4.3743176e+01 
-6.0682178e-02 5.7631296e-01 4.3938457e+01 
3.9444737e-02 6.2338209e-01 4.4053139e+01 
-1.8470748e-01 6.5131217e-01 4.3739727e+01 
-7.0938184e-03 5.4737431e-01 4.4052326e+01 
-4.3632981e-01 9.6407413e-01 4.3564159e+01 
7.6947339e-02 5.8804804e-01 4.4200001e+01 
-1.2721874e-02 6.8194175e-01 4.3817982e+01 
-7.7214435e-02 5.8474159e-01 4.3819649e+01 
4.0195532e-02 5.2425718e-01 4.4200001e+01 
-1.9826968e-01 8.4632379e-01 4.3543118e+01 
-9.6842363e-02 7.6872379e-01 4.3607994e+01 
-3.2091641e-01 9.1783977e-01 4.3499420e+01 
-3.9580306e-01 8.5372573e-01 4.3497700e+01 
-2.8348783e-01 7.2729832e-01 4.3537586e+01 
-1.8155001e-01 6.4778340e-01 4.3603539e+01 
1.5678726e-01 5.2239102e-01 4.4060219e+01 
1.0298219e-02 6.6009766e-01 4.3674484e+01 
1.3250886e-01 4.7546524e-01 4.4058990e+01 
-4.3632913e-01 9.6407002e-01 4.3434200e+01 
-5.0139543e-02 5.6696451e-01 4.3671154e+01 
1.3504514e-01 5.4209155e-01 4.3856747e+01 
1.0361936e-01 4.8715758e-01 4.3855240e+01 
2.0846681e-01 4.8028421e-01 4.4200001e+01 
1.9279444e-01 4.4799727e-01 4.4200001e+01 
-9.2261828e-02 7.6722860e-01 4.3470158e+01 
-1.4701239e-03 6.7547697e-01 4.3552124e+01 
-1.9517080e-01 8.4621930e-01 4.3403992e+01 
-3.1956279e-01 9.1811794e-01 4.3368977e+01 
-3.9574999e-01 8.5323322e-01 4.3367252e+01 
-1.7830023e-01 6.4416617e-01 4.3464752e+01 
-6.7131944e-02 5.7555372e-01 4.3547829e+01 
-2.8202194e-01 7.2500783e-01 4.3397518e+01 
-4.3632844e-01 9.6406585e-01 4.3303261e+01 
1.5138821e-01 5.3037512e-01 4.3609200e+01 
1.2119007e-01 4.7490793e-01 4.3606068e+01 
-8.7566733e-02 7.6566672e-01 4.3329563e+01 
-1.7495437e-01 6.4045686e-01 4.3323273e+01 
-3.1819177e-01 9.1839045e-01 4.3237537e+01 
-3.9568463e-01 8.5271639e-01 4.3235813e+01 
2.2269404e-02 6.5294570e-01 4.3398811e+01 
-1.9201367e-01 8.4610778e-01 4.3262066e+01 
-3.8899176e-02 5.5709696e-01 4.3393635e+01 
-2.8052819e-01 7.2267252e-01 4.3254715e+01 
3.7877345e-01 3.8273901e-01 4.4200001e+01 
-4.3632776e-01 9.6406174e-01 4.3171322e+01 
3.9241230e-01 3.7329337e-01 4.3965439e+01 
1.0283732e-02 6.6872352e-01 4.3271511e+01 
-5.6385640e-02 5.6585240e-01 4.3265472e+01 
-8.2753494e-02 7.6403379e-01 4.3186119e+01 
-4.0345609e-01 8.6371827e-01 4.3104889e+01 
-3.1680310e-01 9.1865683e-01 4.3105087e+01 
-1.7150842e-01 6.3665158e-01 4.3179005e+01 
-1.8879703e-01 8.4598809e-01 4.3117241e+01 
-2.7900568e-01 7.2029078e-01 4.3109074e+01 
4.0610775e-01 3.6380205e-01 4.3729839e+01 
1.6776134e-01 5.1882964e-01 4.3331150e+01 
-4.3632707e-01 9.6405768e-01 4.3038357e+01 
1.4031014e-01 4.6124566e-01 4.3307755e+01 
3.4952711e-02 6.4519531e-01 4.3111935e+01 
-7.7818394e-02 7.6232505e-01 4.3039719e+01 
-3.1539652e-01 9.1891652e-01 4.2971603e+01 
-3.9551663e-01 8.5160977e-01 4.2969879e+01 
-2.6899155e-02 5.4666573e-01 4.3105160e+01 
-1.6795819e-01 6.3274628e-01 4.3031849e+01 
-1.8551964e-01 8.4585863e-01 4.2969406e+01 
4.1985780e-01 3.5425979e-01 4.3493168e+01 
-2.7745360e-01 7.1786088e-01 4.2960495e+01 
-4.3632638e-01 9.6405357e-01 4.2904346e+01 
2.2723136e-02 6.6139150e-01 4.2979332e+01 
-4.4916678e-02 5.5559248e-01 4.2971806e+01 
-3.1397179e-01 9.1916907e-01 4.2837063e+01 
-3.9541367e-01 8.5101974e-01 4.2835335e+01 
-7.2757579e-02 7.6053542e-01 4.2890255e+01 
-1.6429928e-01 6.2873662e-01 4.2881699e+01 
1.8463810e-01 5.0694346e-01 4.3035332e+01 
-1.8218029e-01 8.4571803e-01 4.2818455e+01 
1.5503895e-01 4.5003417e-01 4.3027725e+01 
-2.7587104e-01 7.1538109e-01 4.2808868e+01 
4.3366045e-01 3.4466109e-01 4.3255390e+01 
-4.3632573e-01 9.6404958e-01 4.2769268e+01 
-3.8429454e-01 8.3484912e-01 4.2710606e+01 
-3.1252861e-01 9.1941386e-01 4.2701439e+01 
4.8404284e-02 6.3678014e-01 4.2813030e+01 
-1.4070326e-02 5.3562075e-01 4.2804932e+01 
-6.7567028e-02 7.5865942e-01 4.2737610e+01 
-1.6052702e-01 6.2461799e-01 4.2728443e+01 
-1.7877772e-01 8.4556442e-01 4.2664265e+01 
-4.3632504e-01 9.6404558e-01 4.2633099e+01 
-2.7425703e-01 7.1284944e-01 4.2654083e+01 
4.4751364e-01 3.3500037e-01 4.3016472e+01 
3.5901129e-02 6.5341437e-01 4.2674721e+01 
-3.7959340e-01 8.2794034e-01 4.2568317e+01 
-3.1106678e-01 9.1965032e-01 4.2564713e+01 
-3.2659348e-02 5.4472327e-01 4.2665997e+01 
2.0396979e-01 4.9291667e-01 4.2740131e+01 
-6.2242586e-02 7.5669110e-01 4.2581669e+01 
1.7765003e-01 4.3475360e-01 4.2732578e+01 
-1.5663649e-01 6.2038553e-01 4.2571964e+01 
-4.3632439e-01 9.6404165e-01 4.2495808e+01 
-1.7531081e-01 8.4539592e-01 4.2506718e+01 
-2.7261066e-01 7.1026409e-01 4.2496017e+01 
-3.0958602e-01 9.1987789e-01 4.2426853e+01 
-3.7859210e-01 8.2613736e-01 4.2421188e+01 
4.6141517e-01 3.2527190e-01 4.2776375e+01 
6.2686495e-02 6.2762415e-01 4.2501175e+01 
-3.3570320e-04 5.2390522e-01 4.2492062e+01 
-5.6779940e-02 7.5462401e-01 4.2422298e+01 
-4.3632373e-01 9.6403772e-01 4.2357380e+01 
-1.5262254e-01 6.1603409e-01 4.2412144e+01 
-1.7177837e-01 8.4521037e-01 4.2345684e+01 
-2.7093092e-01 7.0762289e-01 4.2334549e+01 
-3.0808610e-01 9.2009580e-01 4.2287842e+01 
-3.8275370e-01 8.3137155e-01 4.2275047e+01 
4.9876589e-02 6.4471585e-01 4.2356720e+01 
-1.9539909e-02 5.3318781e-01 4.2347118e+01 
-4.3632311e-01 9.6403396e-01 4.2217781e+01 
2.1959943e-01 4.8236796e-01 4.2385345e+01 
-5.1174615e-02 7.5245124e-01 4.2259373e+01 
1.9034323e-01 4.2346162e-01 4.2378918e+01 
-1.4847966e-01 6.1155808e-01 4.2248856e+01 
4.7536272e-01 3.1546980e-01 4.2535065e+01 
-1.6817927e-01 8.4500539e-01 4.2181026e+01 
-2.6921678e-01 7.0492369e-01 4.2169544e+01 
-3.0656675e-01 9.2030340e-01 4.2147648e+01 
-3.9470181e-01 8.4769493e-01 4.2145920e+01 
7.7868804e-02 6.1763972e-01 4.2175373e+01 
-4.3632248e-01 9.6403021e-01 4.2076988e+01 
1.4390758e-02 5.1145434e-01 4.2165581e+01 
-4.5421973e-02 7.5016522e-01 4.2092751e+01 
-1.4420210e-01 6.0695171e-01 4.2081959e+01 
-3.0502778e-01 9.2049998e-01 4.2006248e+01 
-4.0175444e-01 8.5747409e-01 4.2004128e+01 
-1.6451253e-01 8.4477836e-01 4.2012604e+01 
4.8935395e-01 3.0558801e-01 4.2292507e+01 
-2.6746723e-01 7.0216429e-01 4.2000870e+01 
6.4714879e-02 6.3520777e-01 4.2024277e+01 
-4.3632188e-01 9.6402657e-01 4.1934975e+01 
-5.4755262e-03 5.2092212e-01 4.2014156e+01 
-2.3078828e-01 8.1064087e-01 4.1931458e+01 
2.3550548e-01 4.7116494e-01 4.2073269e+01 
2.0610523e-01 4.1123796e-01 4.2066772e+01 
-3.9517213e-02 7.4775779e-01 4.1922287e+01 
-1.3978374e-01 6.0220873e-01 4.1911320e+01 
-3.0346894e-01 9.2068475e-01 4.1863613e+01 
-3.9432141e-01 8.4618556e-01 4.1861881e+01 
-1.6077711e-01 8.4452641e-01 4.1840263e+01 
-2.6568118e-01 6.9934219e-01 4.1828377e+01 
-4.3632129e-01 9.6402299e-01 4.1791718e+01 
5.0338638e-01 2.9562023e-01 4.2048656e+01 
9.4028555e-02 6.0672593e-01 4.1834507e+01 
3.0205652e-02 4.9819478e-01 4.1824417e+01 
-3.8116732e-01 8.2744831e-01 4.1725647e+01 
-3.0189002e-01 9.2085695e-01 4.1719719e+01 
-3.3455357e-02 7.4522001e-01 4.1747829e+01 
-1.3521814e-01 5.9732240e-01 4.1736786e+01 
-4.3632072e-01 9.6401960e-01 4.1647179e+01 
-1.5697217e-01 8.4424627e-01 4.1663853e+01 
-2.6385748e-01 6.9645494e-01 4.1651920e+01 
8.0488607e-02 6.2478805e-01 4.1676235e+01 
2.6870471e-01 4.4547972e-01 4.1752304e+01 
9.6269641e-03 5.0785345e-01 4.1665993e+01 
2.4764967e-01 3.8646612e-01 4.1743168e+01 
-3.0029076e-01 9.2101562e-01 4.1574532e+01 
-3.9388368e-01 8.4456980e-01 4.1572796e+01 
5.1745731e-01 2.8556010e-01 4.1803486e+01 
-2.7231261e-02 7.4254233e-01 4.1569210e+01 
-1.3049847e-01 5.9228569e-01 4.1558201e+01 
-4.3632016e-01 9.6401632e-01 4.1501339e+01 
-1.5309690e-01 8.4393430e-01 4.1483204e+01 
-2.6199502e-01 6.9349992e-01 4.1471333e+01 
-2.9867104e-01 9.2115986e-01 4.1428024e+01 
-3.9364263e-01 8.4372103e-01 4.1426289e+01 
1.1125199e-01 5.9476525e-01 4.1477348e+01 
4.7217656e-02 4.8404291e-01 4.1467384e+01 
-4.3631962e-01 9.6401310e-01 4.1354160e+01 
-2.0839609e-02 7.3971421e-01 4.1386261e+01 
-1.2561750e-01 5.8709091e-01 4.1375404e+01 
5.3156406e-01 2.7540097e-01 4.1556946e+01 
-1.4915068e-01 8.4358656e-01 4.1298138e+01 
-2.9703063e-01 9.2128879e-01 4.1280167e+01 
-3.9338648e-01 8.4284443e-01 4.1278431e+01 
-2.6009262e-01 6.9047421e-01 4.1286449e+01 
2.9365057e-01 4.2687622e-01 4.1391586e+01 
9.7278498e-02 6.1333776e-01 4.1311302e+01 
2.7470219e-01 3.6807936e-01 4.1382729e+01 
2.5872495e-02 4.9389899e-01 4.1301384e+01 
-4.3631911e-01 9.6401012e-01 4.1205620e+01 
-1.4274905e-02 7.3672432e-01 4.1198803e+01 
-1.2056758e-01 5.8173001e-01 4.1188221e+01 
-2.9536936e-01 9.2140132e-01 4.1130928e+01 
[...]
POINT_DATA 4496
FIELD FieldData 5
DISPLACEMENT 3 4496  float
3.5218441e-01 3.2188687e-01 -4.5739817e-03 
3.5019919e-01 3.1988427e-01 -4.5422087e-03 
3.5222805e-01 3.2199439e-01 -5.5752210e-03 
3.5231793e-01 3.2194752e-01 -3.4103172e-03 
3.4929401e-01 3.1890166e-01 -3.4332857e-03 
3.4924310e-01 3.1898257e-01 -5.5160075e-03 
3.4820011e-01 3.1786767e-01 -4.5102076e-03 
3.5228911e-01 3.2209837e-01 -6.2429914e-03 
3.5242194e-01 3.2204410e-01 -3.2809274e-03 
3.5028580e-01 3.2008025e-01 -6.2544299e-03 
3.5040191e-01 3.2000563e-01 -3.2365075e-03 
3.4728828e-01 3.1687799e-01 -3.3950049e-03 
3.4723648e-01 3.1695995e-01 -5.5090687e-03 
3.4824517e-01 3.1802452e-01 -6.2660426e-03 
3.5235560e-01 3.2218915e-01 -6.6172667e-03 
3.4834537e-01 3.1793034e-01 -3.1913144e-03 
3.4618688e-01 3.1583682e-01 -4.4779629e-03 
3.5249341e-01 3.2213539e-01 -3.5836410e-03 
3.4729931e-01 3.1692246e-01 -3.9205523e-03 
3.4988156e-01 3.1970033e-01 -6.6868230e-03 
3.4999859e-01 3.1962770e-01 -3.6851396e-03 
3.4521556e-01 3.1492293e-01 -5.5020195e-03 
3.4526828e-01 3.1483996e-01 -3.3563322e-03 
3.4616604e-01 3.1592998e-01 -6.2778103e-03 
3.4625116e-01 3.1581703e-01 -3.1452999e-03 
3.5244438e-01 3.2228231e-01 -6.6743828e-03 
3.4722710e-01 3.1702355e-01 -6.6603501e-03 
3.4415928e-01 3.1379145e-01 -4.4454439e-03 
3.5255837e-01 3.2224134e-01 -4.2207292e-03 
3.4733176e-01 3.1692818e-01 -3.4950073e-03 
3.4404707e-01 3.1379530e-01 -6.2897014e-03 
3.4318009e-01 3.1287125e-01 -5.4949191e-03 
3.4323376e-01 3.1278732e-01 -3.3172742e-03 
3.4834471e-01 3.1815001e-01 -6.6628922e-03 
3.4411794e-01 3.1366447e-01 -3.0984869e-03 
3.4512827e-01 3.1490925e-01 -6.6739507e-03 
3.4843469e-01 3.1808910e-01 -4.2741718e-03 
3.5018477e-01 3.2000309e-01 -6.6414690e-03 
3.4521851e-01 3.1479615e-01 -3.4549613e-03 
3.5026389e-01 3.1995893e-01 -4.6905698e-03 
3.4211695e-01 3.1173137e-01 -4.4127111e-03 
3.5254574e-01 3.2238674e-01 -6.7092185e-03 
3.4640133e-01 3.1619319e-01 -6.6895261e-03 
3.4654582e-01 3.1617564e-01 -4.1166120e-03 
3.5262266e-01 3.2236254e-01 -5.1085991e-03 
3.4188688e-01 3.1161913e-01 -6.3016829e-03 
3.4298897e-01 3.1275418e-01 -6.6876290e-03 
3.4112981e-01 3.1080469e-01 -5.4877196e-03 
3.4118438e-01 3.1071973e-01 -3.2777491e-03 
3.4194449e-01 3.1147131e-01 -3.0508100e-03 
3.4306568e-01 3.1262419e-01 -3.4143503e-03 
3.5039654e-01 3.2023242e-01 -6.8916557e-03 
3.4415093e-01 3.1392398e-01 -6.6695162e-03 
3.5043329e-01 3.2019740e-01 -5.7575498e-03 
3.4005964e-01 3.0965617e-01 -4.3796427e-03 
3.4421104e-01 3.1382972e-01 -4.2246040e-03 
3.4715480e-01 3.1696019e-01 -6.8099322e-03 
3.4719703e-01 3.1691554e-01 -5.4346588e-03 
3.5265136e-01 3.2251650e-01 -7.0742443e-03 
3.5268992e-01 3.2250682e-01 -6.3104695e-03 
3.4080777e-01 3.1055692e-01 -6.7013665e-03 
3.4219769e-01 3.1195730e-01 -6.6973413e-03 
3.3968413e-01 3.0940014e-01 -6.3137547e-03 
3.3906436e-01 3.0872294e-01 -5.4804292e-03 
3.3911991e-01 3.0863702e-01 -3.2378612e-03 
3.4087193e-01 3.1041104e-01 -3.3732716e-03 
3.4225070e-01 3.1184396e-01 -4.0613022e-03 
3.3972937e-01 3.0923626e-01 -3.0023083e-03 
3.3798707e-01 3.0756578e-01 -4.3463530e-03 
3.4324583e-01 3.1302130e-01 -6.8193395e-03 
3.4326267e-01 3.1295198e-01 -5.4546986e-03 
3.3858329e-01 3.0831614e-01 -6.7150635e-03 
3.3863577e-01 3.0815527e-01 -3.3315669e-03 
3.3698353e-01 3.0662584e-01 -5.4729944e-03 
3.3704007e-01 3.0653894e-01 -3.1975165e-03 
3.3979273e-01 3.0953231e-01 -6.6752131e-03 
3.3743733e-01 3.0713686e-01 -6.3258354e-03 
3.3982646e-01 3.0940843e-01 -4.1754236e-03 
3.3747122e-01 3.0695787e-01 -2.9529470e-03 
3.5274053e-01 3.2267904e-01 -8.2171177e-03 
3.3589897e-01 3.0545974e-01 -4.3128673e-03 
3.4903476e-01 3.1894454e-01 -8.2231844e-03 
3.3776128e-01 3.0748704e-01 -6.7046140e-03 
3.3778977e-01 3.0734554e-01 -4.0058857e-03 
3.3631405e-01 3.0603030e-01 -6.7287087e-03 
3.3495659e-01 3.0444106e-01 -3.2169628e-03 
3.3488691e-01 3.0451283e-01 -5.4655806e-03 
3.3635595e-01 3.0585557e-01 -3.2894143e-03 
3.3514500e-01 3.0482787e-01 -6.3378629e-03 
3.3516863e-01 3.0463484e-01 -2.9025646e-03 
3.4531242e-01 3.1519336e-01 -8.2291039e-03 
3.3885416e-01 3.0859587e-01 -6.8242387e-03 
3.3379498e-01 3.0333787e-01 -4.2791613e-03 
3.3855194e-01 3.0820566e-01 -5.4645548e-03 
3.3525872e-01 3.0496374e-01 -6.6796583e-03 
3.3399850e-01 3.0369794e-01 -6.7422199e-03 
3.3277455e-01 3.0238405e-01 -5.4578730e-03 
3.3283293e-01 3.0229515e-01 -3.1157453e-03 
3.3526990e-01 3.0481431e-01 -4.1267928e-03 
3.3403075e-01 3.0351037e-01 -3.2465726e-03 
3.3280557e-01 3.0247146e-01 -6.3498481e-03 
3.4157321e-01 3.1142488e-01 -8.2346946e-03 
3.3281994e-01 3.0226550e-01 -2.8514345e-03 
3.3167505e-01 3.0119988e-01 -4.2449804e-03 
3.3314368e-01 3.0283445e-01 -6.7103654e-03 
3.3315161e-01 3.0266914e-01 -3.9505321e-03 
3.3064580e-01 3.0023894e-01 -5.4501272e-03 
3.3070537e-01 3.0014929e-01 -3.0743708e-03 
3.3163509e-01 3.0131748e-01 -6.7555504e-03 
3.3165899e-01 3.0111828e-01 -3.2033743e-03 
3.3418247e-01 3.0388844e-01 -6.8270569e-03 
3.3041736e-01 3.0006608e-01 -6.3616671e-03 
3.3412957e-01 3.0374861e-01 -5.4486408e-03 
3.3042392e-01 2.9984874e-01 -2.7993729e-03 
3.3781698e-01 3.0763966e-01 -8.2400814e-03 
3.2953864e-01 2.9904586e-01 -4.2106952e-03 
3.2874948e-01 2.9817224e-01 -2.9615967e-03 
3.2850075e-01 2.9807776e-01 -5.4420922e-03 
3.3053675e-01 3.0020630e-01 -6.6824211e-03 
3.3052957e-01 3.0003589e-01 -4.0790150e-03 
3.2922199e-01 2.9888740e-01 -6.7686788e-03 
3.2923862e-01 2.9867771e-01 -3.1593863e-03 
3.2797906e-01 2.9761064e-01 -6.3733668e-03 
3.2738578e-01 2.9687524e-01 -4.1760136e-03 
3.2797843e-01 2.9738218e-01 -2.7461848e-03 
3.3404350e-01 3.0383712e-01 -8.2447957e-03 
3.2833222e-01 2.9798734e-01 -6.7141778e-03 
3.2650703e-01 2.9590932e-01 -2.8903589e-03 
3.2633898e-01 2.9589981e-01 -5.4337326e-03 
3.2832399e-01 2.9780293e-01 -3.8954145e-03 
3.2952446e-01 2.9919589e-01 -6.8347827e-03 
3.2675791e-01 2.9640588e-01 -6.7816600e-03 
3.2947314e-01 2.9906014e-01 -5.4892278e-03 
3.2676837e-01 2.9618707e-01 -3.1152514e-03 
3.2521603e-01 2.9468775e-01 -4.1407677e-03 
3.2548830e-01 2.9510257e-01 -6.3850475e-03 
3.2548219e-01 2.9486510e-01 -2.6922289e-03 
3.2415989e-01 2.9370490e-01 -5.4253237e-03 
3.2418373e-01 2.9356679e-01 -2.8410377e-03 
3.3025327e-01 3.0001849e-01 -8.2488386e-03 
3.2561356e-01 2.9524699e-01 -6.6829636e-03 
3.2559270e-01 2.9506069e-01 -4.0321518e-03 
3.2424068e-01 2.9387125e-01 -6.7939786e-03 
3.2302898e-01 2.9248354e-01 -4.1054860e-03 
3.2424620e-01 2.9364464e-01 -3.0702271e-03 
3.2294366e-01 2.9254064e-01 -6.3962820e-03 
3.2293326e-01 2.9229540e-01 -2.6372552e-03 
3.2196376e-01 2.9149309e-01 -5.4166042e-03 
3.2186997e-01 2.9123631e-01 -2.8223700e-03 
3.2331312e-01 2.9293194e-01 -6.7152753e-03 
3.2329395e-01 2.9273418e-01 -3.8406723e-03 
3.2082465e-01 2.9026240e-01 -4.0699164e-03 
3.2392386e-01 2.9355380e-01 -6.8243109e-03 
3.2166857e-01 2.9128185e-01 -6.8058064e-03 
3.2389110e-01 2.9343387e-01 -5.4221521e-03 
3.2167053e-01 2.9104894e-01 -3.0248065e-03 
3.2644442e-01 2.9618129e-01 -8.2519054e-03 
3.2034317e-01 2.8992295e-01 -6.4071738e-03 
3.2032979e-01 2.8967130e-01 -2.5813133e-03 
3.1975019e-01 2.8926423e-01 -5.4075392e-03 
3.1981459e-01 2.8917015e-01 -2.8608807e-03 
3.2047507e-01 2.9007232e-01 -6.6809221e-03 
3.1860274e-01 2.8802362e-01 -4.0342123e-03 
3.2044554e-01 2.8987563e-01 -3.9868732e-03 
3.1903964e-01 2.8863579e-01 -6.8171169e-03 
3.1903976e-01 2.8839794e-01 -2.9785349e-03 
3.1751832e-01 2.8701705e-01 -5.3988472e-03 
3.1756696e-01 2.8690872e-01 -2.8699930e-03 
3.1768471e-01 2.8724751e-01 -6.4175446e-03 
3.2261822e-01 2.9232714e-01 -8.2541388e-03 
3.1767032e-01 2.8699139e-01 -2.5240597e-03 
3.1807205e-01 2.8765500e-01 -6.7133587e-03 
3.1636229e-01 2.8576687e-01 -3.9984719e-03 
3.1804711e-01 2.8744936e-01 -3.7867471e-03 
3.1645086e-01 2.8590602e-01 -4.8079626e-03 
3.1900406e-01 2.8859970e-01 -6.8185078e-03 
3.1897107e-01 2.8847903e-01 -5.3997664e-03 
3.1635195e-01 2.8593135e-01 -6.8278695e-03 
3.1635150e-01 2.8569010e-01 -2.9316787e-03 
3.1526834e-01 2.8475228e-01 -5.3897174e-03 
3.1533465e-01 2.8465647e-01 -2.7732409e-03 
3.1496635e-01 2.8451261e-01 -6.4278506e-03 
3.1495228e-01 2.8425258e-01 -2.4655247e-03 
3.1410342e-01 2.8349167e-01 -3.9619925e-03 
3.1877515e-01 2.8845745e-01 -8.2555432e-03 
3.1510559e-01 2.8466740e-01 -6.6756960e-03 
3.1507322e-01 2.8446653e-01 -3.9431141e-03 
3.1320590e-01 2.8250700e-01 -2.6497159e-03 
3.1299984e-01 2.8246918e-01 -5.3798901e-03 
3.1360283e-01 2.8316543e-01 -6.8379901e-03 
3.1360346e-01 2.8292251e-01 -2.8840033e-03 
3.1182587e-01 2.8119805e-01 -3.9248150e-03 
3.1218585e-01 2.8171539e-01 -6.4374581e-03 
3.1217355e-01 2.8145385e-01 -2.4064879e-03 
3.1259230e-01 2.8214028e-01 -6.7077307e-03 
3.1396326e-01 2.8352863e-01 -6.8535977e-03 
3.1256714e-01 2.8193286e-01 -3.7335532e-03 
3.1388634e-01 2.8337318e-01 -5.5828304e-03 
3.1071213e-01 2.8016755e-01 -5.3698737e-03 
3.1078082e-01 2.8006989e-01 -2.6833073e-03 
3.1491596e-01 2.8457364e-01 -8.2557658e-03 
3.1079060e-01 2.8033665e-01 -6.8470794e-03 
3.1079429e-01 2.8009403e-01 -2.8365762e-03 
3.0952969e-01 2.7888680e-01 -3.8875584e-03 
3.0934075e-01 2.7885443e-01 -6.4460440e-03 
3.0933228e-01 2.7859324e-01 -2.3465331e-03 
3.0840594e-01 2.7784756e-01 -5.3593437e-03 
3.0847555e-01 2.7774984e-01 -2.6380944e-03 
3.0948788e-01 2.7901533e-01 -6.6660275e-03 
3.0945954e-01 2.7881771e-01 -3.9010663e-03 
3.0721423e-01 2.7655718e-01 -3.8505904e-03 
3.0791271e-01 2.7744323e-01 -6.8549425e-03 
3.0792117e-01 2.7720243e-01 -2.7877321e-03 
3.1103718e-01 2.8067043e-01 -8.2539609e-03 
3.0642912e-01 2.7592751e-01 -6.4540040e-03 
3.0608025e-01 2.7550939e-01 -5.3490493e-03 
3.0615020e-01 2.7541032e-01 -2.5921203e-03 
3.0642596e-01 2.7566811e-01 -2.2841697e-03 
3.0829671e-01 2.7782932e-01 -6.8608397e-03 
3.0685630e-01 2.7637070e-01 -6.6971690e-03 
3.0822349e-01 2.7768064e-01 -5.6295148e-03 
3.0683896e-01 2.7616972e-01 -3.6815018e-03 
3.0487898e-01 2.7420756e-01 -3.8129224e-03 
3.0496731e-01 2.7448195e-01 -6.8623405e-03 
3.0498138e-01 2.7424520e-01 -2.7383037e-03 
3.0373427e-01 2.7315044e-01 -5.3383838e-03 
3.0380610e-01 2.7305117e-01 -2.5461060e-03 
3.0344793e-01 2.7293140e-01 -6.4611407e-03 
3.0345249e-01 2.7267626e-01 -2.2216528e-03 
3.0714169e-01 2.7675244e-01 -8.2509564e-03 
3.0252364e-01 2.7183852e-01 -3.7753717e-03 
3.0360398e-01 2.7309877e-01 -6.6520059e-03 
3.0358583e-01 2.7291116e-01 -3.8611575e-03 
3.0136856e-01 2.7077308e-01 -5.3274669e-03 
3.0144078e-01 2.7067229e-01 -2.4995760e-03 
3.0195040e-01 2.7145067e-01 -6.8675675e-03 
3.0197376e-01 2.7122018e-01 -2.6889020e-03 
3.0014819e-01 2.6944995e-01 -3.7366573e-03 
3.0039534e-01 2.6986432e-01 -6.4670979e-03 
3.0040860e-01 2.6961571e-01 -2.1572551e-03 
3.0236003e-01 2.7186185e-01 -6.8691010e-03 
3.0229783e-01 2.7172750e-01 -5.6842398e-03 
3.0055514e-01 2.7003470e-01 -6.6414089e-03 
3.0322954e-01 2.7281952e-01 -8.2467226e-03 
2.9898244e-01 2.6837516e-01 -5.3150873e-03 
2.9905614e-01 2.6827484e-01 -2.4532885e-03 
3.0054545e-01 2.6985633e-01 -3.8420693e-03 
2.9886150e-01 2.6834723e-01 -6.8720034e-03 
2.9889432e-01 2.6812500e-01 -2.6382804e-03 
2.9775253e-01 2.6704267e-01 -3.6985362e-03 
2.9726753e-01 2.6672369e-01 -6.4720814e-03 
2.9729357e-01 2.6648390e-01 -2.0918194e-03 
2.9657632e-01 2.6595953e-01 -5.3028818e-03 
2.9665014e-01 2.6585740e-01 -2.4061068e-03 
2.9743287e-01 2.6689765e-01 -6.6302745e-03 
2.9635322e-01 2.6562330e-01 -3.4704297e-03 
2.9743370e-01 2.6673046e-01 -3.8241134e-03 
2.9533634e-01 2.6461539e-01 -3.6591105e-03 
2.9929668e-01 2.6886576e-01 -8.2399044e-03 
2.9748708e-01 2.6696309e-01 -6.8182671e-03 
2.9569605e-01 2.6516929e-01 -6.8729497e-03 
2.9748049e-01 2.6687592e-01 -5.4699192e-03 
2.9574206e-01 2.6495808e-01 -2.5872155e-03 
2.9414886e-01 2.6352215e-01 -5.2894591e-03 
2.9422399e-01 2.6342067e-01 -2.3584496e-03 
2.9406425e-01 2.6350829e-01 -6.4737010e-03 
2.9410264e-01 2.6327899e-01 -2.0269321e-03 
2.9289940e-01 2.6216859e-01 -3.6206124e-03 
2.9423359e-01 2.6368508e-01 -6.6176117e-03 
2.9424664e-01 2.6353157e-01 -3.8064790e-03 
2.9245296e-01 2.6191452e-01 -6.8735462e-03 
2.9170096e-01 2.6106524e-01 -5.2765710e-03 
2.9177663e-01 2.6096308e-01 -2.3103652e-03 
2.9251313e-01 2.6171649e-01 -2.5350284e-03 
2.9534680e-01 2.6489931e-01 -8.2327081e-03 
2.9078022e-01 2.6021367e-01 -6.4764195e-03 
2.9044071e-01 2.5970030e-01 -3.5812084e-03 
2.9314771e-01 2.6255810e-01 -5.9819580e-03 
2.9309559e-01 2.6256713e-01 -7.0148995e-03 
2.9083487e-01 2.5999844e-01 -1.9580540e-03 
2.9095453e-01 2.6039419e-01 -6.6025029e-03 
2.9098135e-01 2.6025513e-01 -3.7900449e-03 
2.8923038e-01 2.5858730e-01 -5.2634571e-03 
2.8930700e-01 2.5848445e-01 -2.2619576e-03 
2.8912765e-01 2.5857893e-01 -6.8720658e-03 
2.8920540e-01 2.5839674e-01 -2.4826943e-03 
2.8795913e-01 2.5721028e-01 -3.5413865e-03 
2.9138008e-01 2.6091704e-01 -8.2212603e-03 
2.8741166e-01 2.5683638e-01 -6.4774659e-03 
2.8748596e-01 2.5663781e-01 -1.8876423e-03 
2.8673935e-01 2.5609037e-01 -5.2474360e-03 
2.8681630e-01 2.5598601e-01 -2.2142862e-03 
2.8917280e-01 2.5857008e-01 -5.9618773e-03 
2.8912216e-01 2.5858042e-01 -7.0025381e-03 
2.8753990e-01 2.5696939e-01 -6.5851854e-03 
2.8755477e-01 2.5681871e-01 -3.7529815e-03 
2.8603292e-01 2.5529906e-01 -3.8569472e-03 
2.8545964e-01 2.5470427e-01 -3.5004313e-03 
2.8574640e-01 2.5518969e-01 -6.8692835e-03 
2.8586167e-01 2.5504211e-01 -2.4063780e-03 
2.8424859e-01 2.5359276e-01 -5.2080643e-03 
2.8432688e-01 2.5349087e-01 -2.1749190e-03 
2.8401753e-01 2.5343594e-01 -6.4735361e-03 
2.8739631e-01 2.5692043e-01 -8.2077291e-03 
2.8414738e-01 2.5329083e-01 -1.8201676e-03 
2.8297982e-01 2.5221932e-01 -3.4615970e-03 
2.8407013e-01 2.5349233e-01 -6.5758219e-03 
2.8417981e-01 2.5343114e-01 -3.6335622e-03 
2.8519163e-01 2.5457928e-01 -5.9477827e-03 
2.8514257e-01 2.5459078e-01 -6.9904993e-03 
2.8272438e-01 2.5198305e-01 -3.8049018e-03 
2.8177795e-01 2.5111783e-01 -5.1684156e-03 
2.8238219e-01 2.5181952e-01 -6.8659047e-03 
2.8185514e-01 2.5101444e-01 -2.1355650e-03 
2.8255153e-01 2.5172412e-01 -2.3192735e-03 
2.8051928e-01 2.4975410e-01 -3.4211969e-03 
2.8068620e-01 2.5010064e-01 -6.4680590e-03 
2.8086510e-01 2.5000289e-01 -1.7546637e-03 
2.8341454e-01 2.5292897e-01 -8.1918240e-03 
2.8073755e-01 2.5015602e-01 -6.5733134e-03 
2.8089938e-01 2.5014025e-01 -3.5109185e-03 
2.7932465e-01 2.4866053e-01 -5.1293476e-03 
2.7940261e-01 2.4855913e-01 -2.0969338e-03 
2.8108162e-01 2.5051033e-01 -6.7464365e-03 
2.8115672e-01 2.5050464e-01 -5.3414959e-03 
2.7907953e-01 2.4851470e-01 -6.8610660e-03 
2.7929533e-01 2.4846102e-01 -2.2342112e-03 
2.7863753e-01 2.4789064e-01 -3.7372592e-03 
2.7807724e-01 2.4731007e-01 -3.3822008e-03 
2.7763709e-01 2.4677093e-01 -1.6895570e-03 
2.7741355e-01 2.4682663e-01 -6.4608529e-03 
2.7689132e-01 2.4622440e-01 -5.0890232e-03 
2.7696937e-01 2.4612476e-01 -2.0592636e-03 
2.7767137e-01 2.4690568e-01 -3.3914843e-03 
2.7746353e-01 2.4688126e-01 -6.5713692e-03 
2.7944320e-01 2.4895343e-01 -8.1753815e-03 
2.7565369e-01 2.4488582e-01 -3.3443933e-03 
2.7609250e-01 2.4525389e-01 -2.1514080e-03 
2.7583441e-01 2.4527064e-01 -6.8550128e-03 
2.7720740e-01 2.4664770e-01 -6.9637946e-03 
2.7693623e-01 2.4628606e-01 -5.3986767e-03 
2.7447617e-01 2.4380879e-01 -5.0490326e-03 
2.7450731e-01 2.4366395e-01 -2.0464913e-03 
2.7446124e-01 2.4359211e-01 -1.6229181e-03 
2.7419972e-01 2.4361409e-01 -6.4551090e-03 
2.7352837e-01 2.4278569e-01 -3.7512248e-03 
2.7324772e-01 2.4247934e-01 -3.3049237e-03 
2.7449426e-01 2.4372353e-01 -3.2764743e-03 
2.7385795e-01 2.4327193e-01 -6.4846235e-03 
2.7293944e-01 2.4210063e-01 -2.0729918e-03 
2.7264747e-01 2.4208485e-01 -6.8470938e-03 
2.7207741e-01 2.4140961e-01 -5.0076246e-03 
2.7548596e-01 2.4499686e-01 -8.1579788e-03 
2.7215478e-01 2.4131133e-01 -1.9832789e-03 
2.7175447e-01 2.4100468e-01 -3.5858729e-03 
2.7331850e-01 2.4266952e-01 -5.3645959e-03 
2.7085960e-01 2.4009320e-01 -3.2669022e-03 
2.7133355e-01 2.4046780e-01 -1.5637153e-03 
2.7104160e-01 2.4045807e-01 -6.4439201e-03 
2.7325529e-01 2.4269833e-01 -6.9462787e-03 
2.7136889e-01 2.4059749e-01 -3.1627575e-03 
2.7108923e-01 2.4051079e-01 -6.5620900e-03 
2.6969695e-01 2.3903136e-01 -4.9679144e-03 
2.6977471e-01 2.3893379e-01 -1.9459433e-03 
2.6983771e-01 2.3900099e-01 -1.9939509e-03 
2.6951581e-01 2.3895706e-01 -6.8366956e-03 
2.6881632e-01 2.3804742e-01 -3.1468645e-03 
2.6848796e-01 2.3772520e-01 -3.2290383e-03 
2.7153513e-01 2.4104933e-01 -8.1363898e-03 
2.6825681e-01 2.3739500e-01 -1.5006188e-03 
2.6793709e-01 2.3735936e-01 -6.4337384e-03 
2.6972169e-01 2.3905054e-01 -4.8879171e-03 
2.6945606e-01 2.3888031e-01 -6.5413937e-03 
2.6733264e-01 2.3667146e-01 -4.9270522e-03 
2.6829240e-01 2.3752022e-01 -3.0529934e-03 
2.6716840e-01 2.3632392e-01 -1.7675059e-03 
2.6798382e-01 2.3741162e-01 -6.5580015e-03 
2.6613218e-01 2.3537420e-01 -3.1925668e-03 
2.6678321e-01 2.3594953e-01 -1.9154815e-03 
2.6643702e-01 2.3588510e-01 -6.8251546e-03 
2.6506385e-01 2.3423243e-01 -1.8734047e-03 
2.6494709e-01 2.3428048e-01 -4.7188452e-03 
2.6522744e-01 2.3437113e-01 -1.4397001e-03 
2.6488301e-01 2.3431388e-01 -6.4219404e-03 
2.6759341e-01 2.3711219e-01 -8.1113074e-03 
2.6429719e-01 2.3358802e-01 -3.9511467e-03 
2.6526338e-01 2.3449543e-01 -2.9465568e-03 
2.6492938e-01 2.3436479e-01 -6.5532094e-03 
2.6379424e-01 2.3304249e-01 -3.1569691e-03 
2.6377565e-01 2.3295057e-01 -1.8426471e-03 
2.6537862e-01 2.3483355e-01 -6.9022118e-03 
2.6542065e-01 2.3481615e-01 -5.8651110e-03 
2.6304737e-01 2.3221351e-01 -1.6952958e-03 
2.6340750e-01 2.3286231e-01 -6.8111359e-03 
2.6286811e-01 2.3222870e-01 -5.0621177e-03 
2.6451856e-01 2.3381869e-01 -4.1318177e-03 
2.6408598e-01 2.3351549e-01 -6.4044166e-03 
2.6224291e-01 2.3139580e-01 -1.3817531e-03 
2.6188308e-01 2.3132227e-01 -6.4025167e-03 
2.6147380e-01 2.3072866e-01 -3.1206140e-03 
2.6228002e-01 2.3151651e-01 -2.8433008e-03 
2.6192823e-01 2.3137316e-01 -6.5470696e-03 
2.6366168e-01 2.3318949e-01 -8.0814837e-03 
2.6047537e-01 2.2964765e-01 -1.6028476e-03 
2.6031283e-01 2.2968367e-01 -5.0542154e-03 
2.6081437e-01 2.2999556e-01 -1.7704680e-03 
2.6043096e-01 2.2989757e-01 -6.7972206e-03 
2.5916991e-01 2.2843246e-01 -3.0838931e-03 
2.6145756e-01 2.3092523e-01 -6.8751122e-03 
2.6149768e-01 2.3090693e-01 -5.8412645e-03 
2.5930527e-01 2.2846600e-01 -1.3213567e-03 
2.5893137e-01 2.2838379e-01 -6.3870279e-03 
2.5934234e-01 2.2858573e-01 -2.7423617e-03 
2.5784487e-01 2.2722159e-01 -4.9705952e-03 
2.5867826e-01 2.2814004e-01 -6.5951459e-03 
2.5917622e-01 2.2849034e-01 -3.9880299e-03 
2.5755477e-01 2.2673692e-01 -1.5528548e-03 
2.5789714e-01 2.2708827e-01 -1.6997888e-03 
2.5750324e-01 2.2698154e-01 -6.7791441e-03 
2.5688061e-01 2.2615340e-01 -3.0480281e-03 
2.5974441e-01 2.2928438e-01 -8.0477614e-03 
2.5622123e-01 2.2553539e-01 -3.7374082e-03 
2.5640965e-01 2.2558436e-01 -1.2647100e-03 
2.5746217e-01 2.2691666e-01 -6.3445154e-03 
2.5579965e-01 2.2516599e-01 -4.5900904e-03 
2.5602806e-01 2.2549190e-01 -6.3688452e-03 
2.5584269e-01 2.2504486e-01 -1.7342094e-03 
2.5644758e-01 2.2570111e-01 -2.6439831e-03 
2.5754911e-01 2.2703139e-01 -6.8443934e-03 
2.5758818e-01 2.2701223e-01 -5.8131884e-03 
2.5607190e-01 2.2554219e-01 -6.5298462e-03 
2.5487968e-01 2.2406942e-01 -1.4004747e-03 
2.5460827e-01 2.2389197e-01 -3.0131857e-03 
2.5502241e-01 2.2422703e-01 -1.6285459e-03 
2.5462204e-01 2.2411419e-01 -6.7606475e-03 
2.5392163e-01 2.2313581e-01 -1.7305962e-03 
2.5349903e-01 2.2288318e-01 -4.6747741e-03 
2.5355715e-01 2.2274396e-01 -1.2081681e-03 
2.5317010e-01 2.2265020e-01 -6.3498011e-03 
2.5583762e-01 2.2539420e-01 -8.0129495e-03 
2.5359476e-01 2.2285999e-01 -2.5483863e-03 
2.5235111e-01 2.2164698e-01 -2.9775067e-03 
2.5292456e-01 2.2241576e-01 -6.5707993e-03 
2.5198218e-01 2.2119161e-01 -1.4310646e-03 
2.5340870e-01 2.2275628e-01 -4.0245755e-03 
2.5218949e-01 2.2140825e-01 -1.5616944e-03 
2.5188488e-01 2.2119662e-01 -3.2153151e-03 
2.5139159e-01 2.2080536e-01 -4.9588387e-03 
2.5365070e-01 2.2315317e-01 -6.8122232e-03 
2.5178644e-01 2.2129430e-01 -6.7408765e-03 
2.5368837e-01 2.2313341e-01 -5.7844431e-03 
2.5074503e-01 2.1994945e-01 -1.1549894e-03 
2.5175241e-01 2.2123389e-01 -6.2618465e-03 