# vtk DataFile Version 4.0
vtk output
ASCII
DATASET UNSTRUCTURED_GRID
POINTS 4496 float
-4.3633327e-01 9.6409470e-01 4.4200001e+01 
-4.3633258e-01 9.6409065e-01 4.4074627e+01 
-3.2152572e-01 9.1279918e-01 4.4200001e+01 
-3.8534868e-01 8.4052670e-01 4.4200001e+01 
-3.9589554e-01 8.5545403e-01 4.4010014e+01 
-3.2616228e-01 9.1667932e-01 4.4011734e+01 
-4.3633190e-01 9.6408653e-01 4.3948376e+01 
-2.1293370e-01 8.4677851e-01 4.4200001e+01 
-2.9042658e-01 7.3813015e-01 4.4200001e+01 
-2.1010752e-01 8.4669363e-01 4.4073502e+01 
-2.8908840e-01 7.3604190e-01 4.4072292e+01 
-3.9589015e-01 8.5505831e-01 4.3883316e+01 
-3.2487559e-01 9.1697580e-01 4.3885036e+01 
-2.0722924e-01 8.4660655e-01 4.3944645e+01 
-1.1981077e-01 7.7773046e-01 4.4200001e+01 
-2.8772619e-01 7.3391593e-01 4.3942276e+01 
-4.3633121e-01 9.6408242e-01 4.3821228e+01 
-1.9739023e-01 6.6468561e-01 4.4200001e+01 
-2.9444304e-01 7.8727525e-01 4.3879974e+01 
-8.7554991e-02 7.5255024e-01 4.4042213e+01 
-1.6445170e-01 6.4084798e-01 4.4041008e+01 
-3.2357255e-01 9.1726828e-01 4.3757431e+01 
-3.9587301e-01 8.5463828e-01 4.3755711e+01 
-2.0429766e-01 8.4651643e-01 4.3813354e+01 
-2.8633916e-01 7.3175091e-01 4.3809875e+01 
-2.6899619e-02 6.8901783e-01 4.4200001e+01 
-1.0567340e-01 7.7152997e-01 4.3875790e+01 
-4.3633053e-01 9.6407831e-01 4.3693161e+01 
-8.7133333e-02 5.9509218e-01 4.4200001e+01 
-1.8777622e-01 6.5475601e-01 4.3873402e+01 
-2.0131156e-01 8.4642249e-01 4.3679543e+01 
-3.2225290e-01 9.1755641e-01 4.3628902e+01 
-3.9584404e-01 8.5419410e-01 4.3627178e+01 
-1.0114321e-03 6.6670936e-01 4.3939713e+01 
-2.8492665e-01 7.2954547e-01 4.3675007e+01 
-1.0131179e-01 7.7015632e-01 4.3743176e+01 
-6.0682178e-02 5.7631296e-01 4.3938457e+01 
3.9444737e-02 6.2338209e-01 4.4053139e+01 
-1.8470748e-01 6.5131217e-01 4.3739727e+01 
-7.0938184e-03 5.4737431e-01 4.4052326e+01 
-4.3632981e-01 9.6407413e-01 4.3564159e+01 
7.6947339e-02 5.8804804e-01 4.4200001e+01 
-1.2721874e-02 6.8194175e-01 4.3817982e+01 
-7.7214435e-02 5.8474159e-01 4.3819649e+01 
4.0195532e-02 5.2425718e-01 4.4200001e+01 
-1.9826968e-01 8.4632379e-01 4.3543118e+01 
-9.6842363e-02 7.6872379e-01 4.3607994e+01 
-3.2091641e-01 9.1783977e-01 4.3499420e+01 
-3.9580306e-01 8.5372573e-01 4.3497700e+01 
-2.8348783e-01 7.2729832e-01 4.3537586e+01 
-1.8155001e-01 6.4778340e-01 4.3603539e+01 
1.5678726e-01 5.2239102e-01 4.4060219e+01 
1.0298219e-02 6.6009766e-01 4.3674484e+01 
1.3250886e-01 4.7546524e-01 4.4058990e+01 
-4.3632913e-01 9.6407002e-01 4.3434200e+01 
-5.0139543e-02 5.6696451e-01 4.3671154e+01 
1.3504514e-01 5.4209155e-01 4.3856747e+01 
1.0361936e-01 4.8715758e-01 4.3855240e+01 
2.0846681e-01 4.8028421e-01 4.4200001e+01 
1.9279444e-01 4.4799727e-01 4.4200001e+01 
-9.2261828e-02 7.6722860e-01 4.3470158e+01 
-1.4701239e-03 6.7547697e-01 4.3552124e+01 
-1.9517080e-01 8.4621930e-01 4.3403992e+01 
-3.1956279e-01 9.1811794e-01 4.3368977e+01 
-3.9574999e-01 8.5323322e-01 4.3367252e+01 
-1.7830023e-01 6.4416617e-01 4.3464752e+01 
-6.7131944e-02 5.7555372e-01 4.3547829e+01 
-2.8202194e-01 7.2500783e-01 4.3397518e+01 
-4.3632844e-01 9.6406585e-01 4.3303261e+01 
1.5138821e-01 5.3037512e-01 4.3609200e+01 
1.2119007e-01 4.7490793e-01 4.3606068e+01 
-8.7566733e-02 7.6566672e-01 4.3329563e+01 
-1.7495437e-01 6.4045686e-01 4.3323273e+01 
-3.1819177e-01 9.1839045e-01 4.3237537e+01 
-3.9568463e-01 8.5271639e-01 4.3235813e+01 
2.2269404e-02 6.5294570e-01 4.3398811e+01 
-1.9201367e-01 8.4610778e-01 4.3262066e+01 
-3.8899176e-02 5.5709696e-01 4.3393635e+01 
-2.8052819e-01 7.2267252e-01 4.3254715e+01 
3.7877345e-01 3.8273901e-01 4.4200001e+01 
-4.3632776e-01 9.6406174e-01 4.3171322e+01 
3.9241230e-01 3.7329337e-01 4.3965439e+01 
1.0283732e-02 6.6872352e-01 4.3271511e+01 
-5.6385640e-02 5.6585240e-01 4.3265472e+01 
-8.2753494e-02 7.6403379e-01 4.3186119e+01 
-4.0345609e-01 8.6371827e-01 4.3104889e+01 
-3.1680310e-01 9.1865683e-01 4.3105087e+01 
-1.7150842e-01 6.3665158e-01 4.3179005e+01 
-1.8879703e-01 8.4598809e-01 4.3117241e+01 
-2.7900568e-01 7.2029078e-01 4.3109074e+01 
4.0610775e-01 3.6380205e-01 4.3729839e+01 
1.6776134e-01 5.1882964e-01 4.3331150e+01 
-4.3632707e-01 9.6405768e-01 4.3038357e+01 
1.4031014e-01 4.6124566e-01 4.3307755e+01 
3.4952711e-02 6.4519531e-01 4.3111935e+01 
-7.7818394e-02 7.6232505e-01 4.3039719e+01 
-3.1539652e-01 9.1891652e-01 4.2971603e+01 
-3.9551663e-01 8.5160977e-01 4.2969879e+01 
-2.6899155e-02 5.4666573e-01 4.3105160e+01 
-1.6795819e-01 6.3274628e-01 4.3031849e+01 
-1.8551964e-01 8.4585863e-01 4.2969406e+01 
4.1985780e-01 3.5425979e-01 4.3493168e+01 
-2.7745360e-01 7.1786088e-01 4.2960495e+01 
-4.3632638e-01 9.6405357e-01 4.2904346e+01 
2.2723136e-02 6.6139150e-01 4.2979332e+01 
-4.4916678e-02 5.5559248e-01 4.2971806e+01 
-3.1397179e-01 9.1916907e-01 4.2837063e+01 
-3.9541367e-01 8.5101974e-01 4.2835335e+01 
-7.2757579e-02 7.6053542e-01 4.2890255e+01 
-1.6429928e-01 6.2873662e-01 4.2881699e+01 
1.8463810e-01 5.0694346e-01 4.3035332e+01 
-1.8218029e-01 8.4571803e-01 4.2818455e+01 
1.5503895e-01 4.5003417e-01 4.3027725e+01 
-2.7587104e-01 7.1538109e-01 4.2808868e+01 
4.3366045e-01 3.4466109e-01 4.3255390e+01 
-4.3632573e-01 9.6404958e-01 4.2769268e+01 
-3.8429454e-01 8.3484912e-01 4.2710606e+01 
-3.1252861e-01 9.1941386e-01 4.2701439e+01 
4.8404284e-02 6.3678014e-01 4.2813030e+01 
-1.4070326e-02 5.3562075e-01 4.2804932e+01 
-6.7567028e-02 7.5865942e-01 4.2737610e+01 
-1.6052702e-01 6.2461799e-01 4.2728443e+01 
-1.7877772e-01 8.4556442e-01 4.2664265e+01 
-4.3632504e-01 9.6404558e-01 4.2633099e+01 
-2.7425703e-01 7.1284944e-01 4.2654083e+01 
4.4751364e-01 3.3500037e-01 4.3016472e+01 
3.5901129e-02 6.5341437e-01 4.2674721e+01 
-3.7959340e-01 8.2794034e-01 4.2568317e+01 
-3.1106678e-01 9.1965032e-01 4.2564713e+01 
-3.2659348e-02 5.4472327e-01 4.2665997e+01 
2.0396979e-01 4.9291667e-01 4.2740131e+01 
-6.2242586e-02 7.5669110e-01 4.2581669e+01 
1.7765003e-01 4.3475360e-01 4.2732578e+01 
-1.5663649e-01 6.2038553e-01 4.2571964e+01 
-4.3632439e-01 9.6404165e-01 4.2495808e+01 
-1.7531081e-01 8.4539592e-01 4.2506718e+01 
-2.7261066e-01 7.1026409e-01 4.2496017e+01 
-3.0958602e-01 9.1987789e-01 4.2426853e+01 
-3.7859210e-01 8.2613736e-01 4.2421188e+01 
4.6141517e-01 3.2527190e-01 4.2776375e+01 
6.2686495e-02 6.2762415e-01 4.2501175e+01 
-3.3570320e-04 5.2390522e-01 4.2492062e+01 
-5.6779940e-02 7.5462401e-01 4.2422298e+01 
-4.3632373e-01 9.6403772e-01 4.2357380e+01 
-1.5262254e-01 6.1603409e-01 4.2412144e+01 
-1.7177837e-01 8.4521037e-01 4.2345684e+01 
-2.7093092e-01 7.0762289e-01 4.2334549e+01 
-3.0808610e-01 9.2009580e-01 4.2287842e+01 
-3.8275370e-01 8.3137155e-01 4.2275047e+01 
4.9876589e-02 6.4471585e-01 4.2356720e+01 
-1.9539909e-02 5.3318781e-01 4.2347118e+01 
-4.3632311e-01 9.6403396e-01 4.2217781e+01 
2.1959943e-01 4.8236796e-01 4.2385345e+01 
-5.1174615e-02 7.5245124e-01 4.2259373e+01 
1.9034323e-01 4.2346162e-01 4.2378918e+01 
-1.4847966e-01 6.1155808e-01 4.2248856e+01 
4.7536272e-01 3.1546980e-01 4.2535065e+01 
-1.6817927e-01 8.4500539e-01 4.2181026e+01 
-2.6921678e-01 7.0492369e-01 4.2169544e+01 
-3.0656675e-01 9.2030340e-01 4.2147648e+01 
-3.9470181e-01 8.4769493e-01 4.2145920e+01 
7.7868804e-02 6.1763972e-01 4.2175373e+01 
-4.3632248e-01 9.6403021e-01 4.2076988e+01 
1.4390758e-02 5.1145434e-01 4.2165581e+01 
-4.5421973e-02 7.5016522e-01 4.2092751e+01 
-1.4420210e-01 6.0695171e-01 4.2081959e+01 
-3.0502778e-01 9.2049998e-01 4.2006248e+01 
-4.0175444e-01 8.5747409e-01 4.2004128e+01 
-1.6451253e-01 8.4477836e-01 4.2012604e+01 
4.8935395e-01 3.0558801e-01 4.2292507e+01 
-2.6746723e-01 7.0216429e-01 4.2000870e+01 
6.4714879e-02 6.3520777e-01 4.2024277e+01 
-4.3632188e-01 9.6402657e-01 4.1934975e+01 
-5.4755262e-03 5.2092212e-01 4.2014156e+01 
-2.3078828e-01 8.1064087e-01 4.1931458e+01 
2.3550548e-01 4.7116494e-01 4.2073269e+01 
2.0610523e-01 4.1123796e-01 4.2066772e+01 
-3.9517213e-02 7.4775779e-01 4.1922287e+01 
-1.3978374e-01 6.0220873e-01 4.1911320e+01 
-3.0346894e-01 9.2068475e-01 4.1863613e+01 
-3.9432141e-01 8.4618556e-01 4.1861881e+01 
-1.6077711e-01 8.4452641e-01 4.1840263e+01 
-2.6568118e-01 6.9934219e-01 4.1828377e+01 
-4.3632129e-01 9.6402299e-01 4.1791718e+01 
5.0338638e-01 2.9562023e-01 4.2048656e+01 
9.4028555e-02 6.0672593e-01 4.1834507e+01 
3.0205652e-02 4.9819478e-01 4.1824417e+01 
-3.8116732e-01 8.2744831e-01 4.1725647e+01 
-3.0189002e-01 9.2085695e-01 4.1719719e+01 
-3.3455357e-02 7.4522001e-01 4.1747829e+01 
-1.3521814e-01 5.9732240e-01 4.1736786e+01 
-4.3632072e-01 9.6401960e-01 4.1647179e+01 
-1.5697217e-01 8.4424627e-01 4.1663853e+01 
-2.6385748e-01 6.9645494e-01 4.1651920e+01 
8.0488607e-02 6.2478805e-01 4.1676235e+01 
2.6870471e-01 4.4547972e-01 4.1752304e+01 
9.6269641e-03 5.0785345e-01 4.1665993e+01 
2.4764967e-01 3.8646612e-01 4.1743168e+01 
-3.0029076e-01 9.2101562e-01 4.1574532e+01 
-3.9388368e-01 8.4456980e-01 4.1572796e+01 
5.1745731e-01 2.8556010e-01 4.1803486e+01 
-2.7231261e-02 7.4254233e-01 4.1569210e+01 
-1.3049847e-01 5.9228569e-01 4.1558201e+01 
-4.3632016e-01 9.6401632e-01 4.1501339e+01 
-1.5309690e-01 8.4393430e-01 4.1483204e+01 
-2.6199502e-01 6.9349992e-01 4.1471333e+01 
-2.9867104e-01 9.2115986e-01 4.1428024e+01 
-3.9364263e-01 8.4372103e-01 4.1426289e+01 
1.1125199e-01 5.9476525e-01 4.1477348e+01 
4.7217656e-02 4.8404291e-01 4.1467384e+01 
-4.3631962e-01 9.6401310e-01 4.1354160e+01 
-2.0839609e-02 7.3971421e-01 4.1386261e+01 
-1.2561750e-01 5.8709091e-01 4.1375404e+01 
5.3156406e-01 2.7540097e-01 4.1556946e+01 
-1.4915068e-01 8.4358656e-01 4.1298138e+01 
-2.9703063e-01 9.2128879e-01 4.1280167e+01 
-3.9338648e-01 8.4284443e-01 4.1278431e+01 
-2.6009262e-01 6.9047421e-01 4.1286449e+01 
2.9365057e-01 4.2687622e-01 4.1391586e+01 
9.7278498e-02 6.1333776e-01 4.1311302e+01 
2.7470219e-01 3.6807936e-01 4.1382729e+01 
2.5872495e-02 4.9389899e-01 4.1301384e+01 
-4.3631911e-01 9.6401012e-01 4.1205620e+01 
-1.4274905e-02 7.3672432e-01 4.1198803e+01 
-1.2056758e-01 5.8173001e-01 4.1188221e+01 
-2.9536936e-01 9.2140132e-01 4.1130928e+01 
[...]
POINT_DATA 4496
FIELD FieldData 5
DISPLACEMENT 3 4496  float
6.3298605e-03 6.7423778e-03 -8.5144115e-05 
6.3032629e-03 6.7062969e-03 -8.5134554e-05 
6.3413307e-03 6.7680599e-03 -9.4750692e-05 
6.3575031e-03 6.7537893e-03 -6.0408598e-05 
6.3138558e-03 6.6967551e-03 -6.2454325e-05 
6.3005211e-03 6.7128395e-03 -9.4869763e-05 
6.2764850e-03 6.6699730e-03 -8.5124084e-05 
6.3560992e-03 6.7923605e-03 -9.8804463e-05 
6.3804137e-03 6.7750309e-03 -5.1088708e-05 
6.3292752e-03 6.7565818e-03 -9.9371129e-05 
6.3537797e-03 6.7385719e-03 -5.0762996e-05 
6.2870691e-03 6.6603036e-03 -6.2332685e-05 
6.2735826e-03 6.6766706e-03 -9.5219388e-05 
6.3019567e-03 6.7201327e-03 -9.9946134e-05 
6.3715479e-03 6.8132030e-03 -9.8706034e-05 
6.3266642e-03 6.7014606e-03 -5.0434977e-05 
6.2495251e-03 6.6334009e-03 -8.5112129e-05 
6.3968492e-03 6.7958548e-03 -4.9701237e-05 
6.3015125e-03 6.6820267e-03 -6.4360029e-05 
6.3436953e-03 6.7749987e-03 -9.8297649e-05 
6.3684350e-03 6.7574540e-03 -4.9822778e-05 
6.2464662e-03 6.6402541e-03 -9.5560339e-05 
6.2600998e-03 6.6236071e-03 -6.2211242e-05 
6.2741283e-03 6.6830008e-03 -1.0052996e-04 
6.2990529e-03 6.6636731e-03 -5.0100669e-05 
6.3914019e-03 6.8340083e-03 -9.2903792e-05 
6.3041365e-03 6.7230272e-03 -9.9897414e-05 
6.2223962e-03 6.5965801e-03 -8.5095526e-05 
6.4124302e-03 6.8205376e-03 -5.3073305e-05 
6.3297451e-03 6.7039896e-03 -4.8866168e-05 
6.2457798e-03 6.6451640e-03 -1.0111985e-04 
6.2191682e-03 6.6035856e-03 -9.5906697e-05 
6.2329569e-03 6.5866685e-03 -6.2090825e-05 
6.3411430e-03 6.7648464e-03 -9.1964401e-05 
6.2709292e-03 6.6251936e-03 -4.9764229e-05 
6.2763114e-03 6.6858232e-03 -1.0041388e-04 
6.3610999e-03 6.7511452e-03 -5.3265165e-05 
6.3749142e-03 6.8065743e-03 -8.8091583e-05 
6.3021355e-03 6.6662035e-03 -4.8523405e-05 
6.3917590e-03 6.7959321e-03 -5.6317058e-05 
6.1950758e-03 6.5595247e-03 -8.5080290e-05 
6.4140088e-03 6.8572788e-03 -8.5891996e-05 
6.3118972e-03 6.7271646e-03 -9.3853487e-05 
6.3339849e-03 6.7132367e-03 -5.2175965e-05 
6.4282990e-03 6.8490561e-03 -5.9711183e-05 
6.2168888e-03 6.6065965e-03 -1.0171584e-04 
6.2479624e-03 6.6479086e-03 -1.0093266e-04 
6.1916881e-03 6.5666744e-03 -9.6246993e-05 
6.2056286e-03 6.5494780e-03 -6.1954604e-05 
6.2422892e-03 6.5860036e-03 -4.9423146e-05 
6.2740198e-03 6.6277222e-03 -4.8174938e-05 
6.3990238e-03 6.8348930e-03 -8.3937688e-05 
6.2863198e-03 6.6909781e-03 -9.2445000e-05 
6.4092702e-03 6.8291067e-03 -6.5255896e-05 
6.1675799e-03 6.5222019e-03 -8.5057029e-05 
6.3064187e-03 6.6765281e-03 -5.2801992e-05 
6.3513932e-03 6.7713829e-03 -8.4982974e-05 
6.3633593e-03 6.7639258e-03 -6.2471947e-05 
6.4381524e-03 6.8867621e-03 -8.2797567e-05 
6.4453860e-03 6.8832547e-03 -7.0157403e-05 
6.2190765e-03 6.6092624e-03 -1.0145723e-04 
6.2569263e-03 6.6531156e-03 -9.4356292e-05 
6.1874469e-03 6.5672891e-03 -1.0231994e-04 
6.1640167e-03 6.5295035e-03 -9.6592579e-05 
6.1781192e-03 6.5120407e-03 -6.1823943e-05 
6.2453793e-03 6.5885326e-03 -4.7830308e-05 
6.2783118e-03 6.6372356e-03 -5.1672319e-05 
6.2131016e-03 6.5460792e-03 -4.9081838e-05 
6.1398908e-03 6.4846375e-03 -8.5037369e-05 
6.3014231e-03 6.7036715e-03 -8.5067135e-05 
6.3131386e-03 6.6960366e-03 -6.2661711e-05 
6.1896378e-03 6.5698712e-03 -1.0197551e-04 
6.2161926e-03 6.5486045e-03 -4.7476922e-05 
6.1361673e-03 6.4920918e-03 -9.6928547e-05 
6.1504310e-03 6.4743552e-03 -6.1690793e-05 
6.2294272e-03 6.6142678e-03 -9.2899070e-05 
6.1574355e-03 6.5272073e-03 -1.0292487e-04 
6.2496923e-03 6.5991520e-03 -5.2347663e-05 
6.1833612e-03 6.5054027e-03 -4.8736601e-05 
6.4600050e-03 6.9249263e-03 -9.0878617e-05 
6.1120144e-03 6.4468118e-03 -8.5019252e-05 
6.4122532e-03 6.8603139e-03 -9.1038964e-05 
6.1989268e-03 6.5749642e-03 -9.4871575e-05 
6.2205396e-03 6.5583964e-03 -5.1169853e-05 
6.1596343e-03 6.5297042e-03 -1.0249749e-04 
6.1202915e-03 6.4350925e-03 -6.3207386e-05 
6.1081094e-03 6.4544016e-03 -9.7275108e-05 
6.1864625e-03 6.5079331e-03 -4.7127742e-05 
6.1268415e-03 6.4863493e-03 -1.0353350e-04 
6.1530657e-03 6.4639663e-03 -4.8377704e-05 
6.3642627e-03 6.7953770e-03 -9.1196984e-05 
6.2449365e-03 6.6271876e-03 -8.5205458e-05 
6.0839416e-03 6.4087412e-03 -8.5000247e-05 
6.2527843e-03 6.6143447e-03 -6.2785257e-05 
6.1703422e-03 6.5345443e-03 -9.3323310e-05 
6.1290469e-03 6.4887498e-03 -1.0301296e-04 
6.0798950e-03 6.4164763e-03 -9.7601391e-05 
6.0944702e-03 6.3981991e-03 -6.1406579e-05 
6.1907973e-03 6.5188590e-03 -5.1904306e-05 
6.1561465e-03 6.4664823e-03 -4.6768917e-05 
6.0956455e-03 6.4446684e-03 -1.0414123e-04 
6.3160327e-03 6.7300703e-03 -9.1352304e-05 
6.1221677e-03 6.4217257e-03 -4.8028520e-05 
6.0557094e-03 6.3703968e-03 -8.4964333e-05 
6.1386758e-03 6.4937179e-03 -9.5353207e-05 
6.1605414e-03 6.4765653e-03 -5.0679795e-05 
6.0514770e-03 6.3782865e-03 -9.7943339e-05 
6.0662259e-03 6.3597551e-03 -6.1270192e-05 
6.0978597e-03 6.4469748e-03 -1.0352930e-04 
6.1252611e-03 6.4242515e-03 -4.6421832e-05 
6.1847889e-03 6.5457295e-03 -8.5352345e-05 
6.0638264e-03 6.4021470e-03 -1.0474820e-04 
6.1957990e-03 6.5369834e-03 -6.2692234e-05 
6.0906895e-03 6.3787000e-03 -4.7682148e-05 
6.2675811e-03 6.6644745e-03 -9.1531256e-05 
6.0272622e-03 6.3318377e-03 -8.4932792e-05 
6.0435138e-03 6.3266079e-03 -5.8984868e-05 
6.0228836e-03 6.3398709e-03 -9.8256780e-05 
6.1089420e-03 6.4516515e-03 -9.3709583e-05 
6.1296122e-03 6.4355074e-03 -5.1488340e-05 
6.0660453e-03 6.4043747e-03 -1.0404046e-04 
6.0937544e-03 6.3812067e-03 -4.6059795e-05 
6.0313949e-03 6.3588102e-03 -1.0535402e-04 
5.9986464e-03 6.2930174e-03 -8.4889194e-05 
6.0585774e-03 6.3348045e-03 -4.7323971e-05 
6.2188944e-03 6.5985476e-03 -9.1687391e-05 
6.0760453e-03 6.4092265e-03 -9.5794850e-05 
6.0151033e-03 6.2870793e-03 -5.7987014e-05 
5.9941071e-03 6.3011870e-03 -9.8552715e-05 
6.0981908e-03 6.3916021e-03 -5.0211140e-05 
6.1253030e-03 6.4650932e-03 -8.5408748e-05 
6.0336282e-03 6.3609201e-03 -1.0455742e-04 
6.1365445e-03 6.4571192e-03 -6.3123436e-05 
6.0616476e-03 6.3373391e-03 -4.5737397e-05 
5.9698564e-03 6.2539349e-03 -8.4821921e-05 
5.9982939e-03 6.3145887e-03 -1.0597469e-04 
6.0258345e-03 6.2900982e-03 -4.6974528e-05 
5.9651197e-03 6.2622596e-03 -9.8870682e-05 
5.9845885e-03 6.2454594e-03 -5.7696721e-05 
6.1700428e-03 6.5324213e-03 -9.1836315e-05 
6.0451063e-03 6.3654287e-03 -9.4039693e-05 
6.0660196e-03 6.3489485e-03 -5.1092167e-05 
6.0005523e-03 6.3165990e-03 -1.0503565e-04 
5.9408578e-03 6.2146373e-03 -8.4772015e-05 
6.0288915e-03 6.2926216e-03 -4.5389872e-05 
5.9645376e-03 6.2694792e-03 -1.0657368e-04 
5.9924452e-03 6.2445286e-03 -4.6622088e-05 
5.9359707e-03 6.2231021e-03 -9.9169411e-05 
5.9527955e-03 6.2030843e-03 -5.8327914e-05 
6.0109193e-03 6.3213068e-03 -9.6172604e-05 
6.0334005e-03 6.3033612e-03 -4.9757127e-05 
5.9116906e-03 6.1751157e-03 -8.4714018e-05 
6.0525811e-03 6.3667591e-03 -8.5685424e-05 
5.9668203e-03 6.2713954e-03 -1.0550524e-04 
6.0641570e-03 6.3585062e-03 -6.2646963e-05 
5.9954952e-03 6.2470650e-03 -4.5051573e-05 
6.1209663e-03 6.4659724e-03 -9.1967806e-05 
5.9301006e-03 6.2234621e-03 -1.0717037e-04 
5.9583820e-03 6.1980723e-03 -4.6271231e-05 
5.9066601e-03 6.1837342e-03 -9.9449346e-05 
5.9222202e-03 6.1639412e-03 -6.0462862e-05 
5.9787319e-03 6.2757521e-03 -9.4313327e-05 
5.8823414e-03 6.1353352e-03 -8.4662533e-05 
5.9999176e-03 6.2590684e-03 -5.0758386e-05 
5.9324144e-03 6.2252879e-03 -1.0596777e-04 
5.9614661e-03 6.2006274e-03 -4.4697554e-05 
5.8771027e-03 6.1440570e-03 -9.9769830e-05 
5.8904458e-03 6.1223363e-03 -6.1768900e-05 
5.8949622e-03 6.1765173e-03 -1.0776067e-04 
6.0717175e-03 6.3992846e-03 -9.2105111e-05 
5.9236833e-03 6.1507518e-03 -4.5895369e-05 
5.9432075e-03 6.2298970e-03 -9.6484451e-05 
5.8527379e-03 6.0952860e-03 -8.4621235e-05 
5.9660417e-03 6.2117437e-03 -4.9355491e-05 
5.8855056e-03 6.1391387e-03 -8.4205349e-05 
5.9892675e-03 6.2811021e-03 -8.5837200e-05 
6.0009835e-03 6.2728459e-03 -6.2581952e-05 
5.8973259e-03 6.1782766e-03 -1.0642672e-04 
5.9267511e-03 6.1533139e-03 -4.4344335e-05 
5.8473470e-03 6.1041280e-03 -1.0006339e-04 
5.8632246e-03 6.0838321e-03 -6.0140261e-05 
5.8591026e-03 6.1286562e-03 -1.0835927e-04 
5.8882888e-03 6.1024567e-03 -4.5517885e-05 
5.8229626e-03 6.0549676e-03 -8.4545842e-05 
6.0223597e-03 6.3324934e-03 -9.2251510e-05 
5.9096883e-03 6.1824759e-03 -9.4524272e-05 
5.9311809e-03 6.1657317e-03 -5.0464430e-05 
5.8389935e-03 6.0483878e-03 -5.7561898e-05 
5.8174492e-03 6.0639917e-03 -1.0031756e-04 
5.8614961e-03 6.1302669e-03 -1.0687717e-04 
5.8913156e-03 6.1050365e-03 -4.3983560e-05 
5.7930243e-03 6.0144006e-03 -8.4441286e-05 
5.8225095e-03 6.0797706e-03 -1.0894940e-04 
5.8521256e-03 6.0532107e-03 -4.5168948e-05 
5.8727330e-03 6.1347825e-03 -9.6722186e-05 
5.9274752e-03 6.1970870e-03 -8.5514439e-05 
5.8959303e-03 6.1165439e-03 -4.8993705e-05 
5.9383600e-03 6.1899321e-03 -6.4392865e-05 
5.7873204e-03 6.0235923e-03 -1.0059640e-04 
5.8035646e-03 6.0028061e-03 -5.9745846e-05 
5.9729647e-03 6.2657213e-03 -9.2387119e-05 
5.8249384e-03 6.0812738e-03 -1.0731143e-04 
5.8551822e-03 6.0558403e-03 -4.3671411e-05 
5.7628932e-03 5.9736553e-03 -8.4350526e-05 
5.7851421e-03 6.0298927e-03 -1.0950265e-04 
5.8152368e-03 6.0030255e-03 -4.4833840e-05 
5.7570473e-03 5.9829750e-03 -1.0083673e-04 
5.7734419e-03 5.9619867e-03 -5.9585269e-05 
5.8378032e-03 6.0853777e-03 -9.4639261e-05 
5.8596544e-03 6.0687666e-03 -5.0194634e-05 
5.7325521e-03 5.9327157e-03 -8.4278676e-05 
5.7876226e-03 6.0313027e-03 -1.0770390e-04 
5.8183009e-03 6.0056760e-03 -4.3317774e-05 
5.9233871e-03 6.1986670e-03 -9.2471659e-05 
5.7470053e-03 5.9790192e-03 -1.1004009e-04 
5.7265675e-03 5.9421714e-03 -1.0107816e-04 
5.7430994e-03 5.9209066e-03 -5.9370748e-05 
5.7776077e-03 5.9518395e-03 -4.4431512e-05 
5.8561279e-03 6.1005540e-03 -8.5488726e-05 
5.7993541e-03 6.0357335e-03 -9.6883930e-05 
5.8669480e-03 6.0939966e-03 -6.5003158e-05 
5.8230148e-03 6.0176393e-03 -4.8643516e-05 
5.7020504e-03 5.8914474e-03 -8.4185413e-05 
5.7495614e-03 5.9803058e-03 -1.0811158e-04 
5.7806303e-03 5.9545157e-03 -4.2973541e-05 
5.6958874e-03 5.9010321e-03 -1.0133960e-04 
5.7126232e-03 5.8795675e-03 -5.9190421e-05 
5.7080756e-03 5.9270575e-03 -1.1060773e-04 
5.7391832e-03 5.8996608e-03 -4.4074299e-05 
5.8737192e-03 6.1315601e-03 -9.2582042e-05 
5.6713144e-03 5.8499970e-03 -8.4099462e-05 
5.7629487e-03 5.9842821e-03 -9.4682182e-05 
5.7851397e-03 5.9679174e-03 -5.0005019e-05 
5.6650126e-03 5.8597112e-03 -1.0159359e-04 
5.6818980e-03 5.8379951e-03 -5.8976475e-05 
5.7106526e-03 5.9282030e-03 -1.0847011e-04 
5.7422235e-03 5.9023621e-03 -4.2653701e-05 
5.6404234e-03 5.8082594e-03 -8.3980041e-05 
5.6683277e-03 5.8740363e-03 -1.1110175e-04 
5.6999261e-03 5.8464208e-03 -4.3687589e-05 
5.7818010e-03 6.0000774e-03 -8.5464620e-05 
5.7925968e-03 5.9942612e-03 -6.5698565e-05 
5.7243239e-03 5.9321336e-03 -9.4606752e-05 
5.8240257e-03 6.0644774e-03 -9.2691320e-05 
5.6339805e-03 5.8181267e-03 -1.0178235e-04 
5.6510316e-03 5.7962411e-03 -5.8819845e-05 
5.7466975e-03 5.9160478e-03 -4.9901289e-05 
5.6709829e-03 5.8750785e-03 -1.0880286e-04 
5.7029678e-03 5.8491519e-03 -4.2333577e-05 
5.6093112e-03 5.7663973e-03 -8.3880826e-05 
5.6276801e-03 5.8198934e-03 -1.1161732e-04 
5.6599309e-03 5.7921512e-03 -4.3319367e-05 
5.6027556e-03 5.7764393e-03 -1.0196616e-04 
5.6199306e-03 5.7542603e-03 -5.8595382e-05 
5.6849201e-03 5.8789393e-03 -9.4551862e-05 
5.6358064e-03 5.7829330e-03 -6.5666682e-05 
5.7074986e-03 5.8631650e-03 -4.9871029e-05 
5.5780406e-03 5.7242420e-03 -8.3736224e-05 
5.7741278e-03 5.9970482e-03 -9.2756542e-05 
5.7179551e-03 5.9141968e-03 -8.5761851e-05 
5.6304554e-03 5.8208532e-03 -1.0903901e-04 
5.7293489e-03 5.9071262e-03 -6.3972686e-05 
5.6629428e-03 5.7949815e-03 -4.2009593e-05 
5.5713113e-03 5.7343980e-03 -1.0210827e-04 
5.5886568e-03 5.7120565e-03 -5.8386802e-05 
5.5863224e-03 5.7647475e-03 -1.1199812e-04 
5.6190295e-03 5.7368702e-03 -4.3032902e-05 
5.5465777e-03 5.6819567e-03 -8.3634324e-05 
5.6447168e-03 5.8246972e-03 -9.4492309e-05 
5.6674788e-03 5.8092573e-03 -4.9814669e-05 
5.5891220e-03 5.7655615e-03 -1.0932377e-04 
5.5397572e-03 5.6922119e-03 -1.0228482e-04 
5.5572526e-03 5.6696665e-03 -5.8164747e-05 
5.6220512e-03 5.7397317e-03 -4.1659965e-05 
5.7241078e-03 5.9297504e-03 -9.2893926e-05 
5.5439882e-03 5.7084248e-03 -1.1249214e-04 
5.5149412e-03 5.6394138e-03 -8.3493680e-05 
5.6808339e-03 5.8468040e-03 -6.8894034e-05 
5.6726569e-03 5.8524399e-03 -8.5079089e-05 
5.5773063e-03 5.6804963e-03 -4.2609063e-05 
5.6036632e-03 5.7693776e-03 -9.4352021e-05 
5.6265830e-03 5.7542613e-03 -4.9820163e-05 
5.5079604e-03 5.6497916e-03 -1.0247071e-04 
5.5256025e-03 5.6270482e-03 -5.7940091e-05 
5.5468706e-03 5.7090926e-03 -1.0958145e-04 
5.5803368e-03 5.6833806e-03 -4.1341737e-05 
5.4830504e-03 5.5966200e-03 -8.3340332e-05 
5.6741033e-03 5.8623678e-03 -9.2912924e-05 
5.5006840e-03 5.6508817e-03 -1.1296633e-04 
5.5346778e-03 5.6229490e-03 -4.2183816e-05 
5.4759216e-03 5.6071533e-03 -1.0262507e-04 
5.4936856e-03 5.5841836e-03 -5.7734866e-05 
5.6309137e-03 5.7796519e-03 -6.8906455e-05 
5.6227813e-03 5.7853707e-03 -8.5114771e-05 
5.5607939e-03 5.7117920e-03 -9.4257433e-05 
5.5835261e-03 5.6963353e-03 -4.9671802e-05 
5.4962304e-03 5.6052660e-03 -7.4695308e-05 
5.4510273e-03 5.5536735e-03 -8.3159859e-05 
5.5035786e-03 5.6515019e-03 -1.0995521e-04 
5.5376785e-03 5.6257979e-03 -4.0973780e-05 
5.4438408e-03 5.5641681e-03 -1.0247334e-04 
5.4615890e-03 5.5413451e-03 -5.7782738e-05 
5.4572765e-03 5.5932035e-03 -1.1325467e-04 
5.6241164e-03 5.7951347e-03 -9.2916933e-05 
5.4922788e-03 5.5659241e-03 -4.1873540e-05 
5.4193377e-03 5.5113435e-03 -8.3041094e-05 
5.5156988e-03 5.6520160e-03 -9.4884133e-05 
5.5400399e-03 5.6372159e-03 -4.8880196e-05 
5.5812234e-03 5.7129818e-03 -6.8941627e-05 
5.5731540e-03 5.7187323e-03 -8.5098058e-05 
5.4534357e-03 5.5481349e-03 -7.4739233e-05 
5.4121800e-03 5.5218246e-03 -1.0228843e-04 
5.4600053e-03 5.5938256e-03 -1.1049786e-04 
5.4298197e-03 5.4989704e-03 -5.7775222e-05 
5.4953359e-03 5.5687181e-03 -4.0534876e-05 
5.3880573e-03 5.4694163e-03 -8.2835031e-05 
5.4148887e-03 5.5369330e-03 -1.1353598e-04 
5.4507568e-03 5.5102133e-03 -4.1573996e-05 
5.5743176e-03 5.7282308e-03 -9.2937815e-05 
5.4718647e-03 5.5943727e-03 -9.5817013e-05 
5.4977867e-03 5.5798441e-03 -4.8095695e-05 
5.3807506e-03 5.4798378e-03 -1.0218695e-04 
5.3983741e-03 5.4571182e-03 -5.7782043e-05 
5.5120653e-03 5.6376047e-03 -8.5773900e-05 
5.5242423e-03 5.6312704e-03 -6.3683619e-05 
5.4174350e-03 5.5375639e-03 -1.1102247e-04 
5.4538208e-03 5.5127912e-03 -4.0085928e-05 
5.4011834e-03 5.4783486e-03 -7.4556636e-05 
5.3570536e-03 5.4280544e-03 -8.2677820e-05 
5.4100784e-03 5.4556401e-03 -4.1220810e-05 
5.3733359e-03 5.4818550e-03 -1.1378389e-04 
5.3497376e-03 5.4383869e-03 -1.0202262e-04 
5.3672683e-03 5.4157954e-03 -5.7785950e-05 
5.4563363e-03 5.5236835e-03 -4.7309968e-05 
5.4289741e-03 5.5380329e-03 -9.6731172e-05 
5.5248267e-03 5.6619584e-03 -9.2994524e-05 
5.3263078e-03 5.3871446e-03 -8.2541934e-05 
5.4130973e-03 5.4580807e-03 -3.9641654e-05 
5.3757192e-03 5.4825800e-03 -1.1152621e-04 
5.4747579e-03 5.5870651e-03 -8.5215921e-05 
5.4727611e-03 5.5632475e-03 -6.4528940e-05 
5.3189653e-03 5.3974004e-03 -1.0183964e-04 
5.3348034e-03 5.3733643e-03 -5.8409627e-05 
5.3702174e-03 5.4021520e-03 -4.0760729e-05 
5.3326758e-03 5.4281489e-03 -1.1411234e-04 
5.3312099e-03 5.3881668e-03 -7.7253688e-05 
5.2958857e-03 5.3465539e-03 -8.2318686e-05 
5.4155863e-03 5.4686666e-03 -4.6636022e-05 
5.3940867e-03 5.4871086e-03 -9.2504895e-05 
5.3730821e-03 5.4045459e-03 -3.9317831e-05 
5.3349142e-03 5.4287529e-03 -1.1198970e-04 
5.2884747e-03 5.3567551e-03 -1.0161666e-04 
5.4758065e-03 5.5964757e-03 -9.3112278e-05 
5.3058588e-03 5.3342972e-03 -5.7703568e-05 
5.3230585e-03 5.3704930e-03 -7.0619884e-05 
5.4278509e-03 5.5032391e-03 -6.4385000e-05 
5.2657500e-03 5.3065103e-03 -8.2139253e-05 
5.3309090e-03 5.3498591e-03 -4.0556228e-05 
5.2928217e-03 5.3754426e-03 -1.1427449e-04 
5.4259710e-03 5.5219941e-03 -8.5197258e-05 
5.3756465e-03 5.4148808e-03 -4.5861929e-05 
5.3459094e-03 5.4290821e-03 -9.8246361e-05 
5.2582966e-03 5.3166463e-03 -1.0147989e-04 
5.2756453e-03 5.2942778e-03 -5.7673085e-05 
5.3338716e-03 5.3521376e-03 -3.8876631e-05 
5.2949460e-03 5.3760973e-03 -1.1235952e-04 
5.2764034e-03 5.3067580e-03 -6.8708090e-05 
5.2358652e-03 5.2668853e-03 -8.1964965e-05 
5.4269647e-03 5.5313832e-03 -9.3238363e-05 
5.2924394e-03 5.2985623e-03 -4.0145598e-05 
5.2537289e-03 5.3239325e-03 -1.1447695e-04 
5.3784093e-03 5.4332060e-03 -6.0284216e-05 
5.3598564e-03 5.4356027e-03 -8.6720640e-05 
5.2283742e-03 5.2769408e-03 -1.0128375e-04 
5.3364625e-03 5.3621344e-03 -4.5162658e-05 
5.2486826e-03 5.2547492e-03 -5.3801599e-05 
5.3056818e-03 5.3764870e-03 -9.9011901e-05 
5.2061877e-03 5.2276207e-03 -8.1800565e-05 
5.2953316e-03 5.3007011e-03 -3.8422961e-05 
5.2557318e-03 5.3246310e-03 -1.1270076e-04 
5.2159121e-03 5.2154497e-03 -5.7598620e-05 
5.1969956e-03 5.2336473e-03 -9.9372490e-05 
5.2546533e-03 5.2482872e-03 -3.9799575e-05 
5.2153543e-03 5.2734604e-03 -1.1466687e-04 
5.3783651e-03 5.4666349e-03 -9.3214650e-05 
5.2156728e-03 5.2391286e-03 -8.0829959e-05 
5.2979840e-03 5.3105438e-03 -4.4504250e-05 
5.2661416e-03 5.3249123e-03 -9.9746816e-05 
5.1768040e-03 5.1888726e-03 -8.1660350e-05 
5.2574263e-03 5.2504265e-03 -3.8101000e-05 
5.3291917e-03 5.3931396e-03 -8.5208892e-05 
5.3369394e-03 5.3873640e-03 -6.9426198e-05 
5.1968014e-03 5.1862178e-03 -5.3590447e-05 
5.2172071e-03 5.2740802e-03 -1.1298145e-04 
5.1736087e-03 5.2066129e-03 -1.0302715e-04 
5.3059128e-03 5.3306064e-03 -5.3934458e-05 
5.2831597e-03 5.3360835e-03 -8.8860470e-05 
5.2173999e-03 5.1990300e-03 -3.9535880e-05 
5.1778718e-03 5.2240365e-03 -1.1462045e-04 
5.1477635e-03 5.1505291e-03 -8.1443563e-05 
5.2601472e-03 5.2599218e-03 -4.3835953e-05 
5.2274908e-03 5.2745496e-03 -1.0039871e-04 
5.3297896e-03 5.4020067e-03 -9.3208066e-05 
5.1671788e-03 5.1456797e-03 -5.1902261e-05 
5.1417481e-03 5.1649222e-03 -1.0313908e-04 
5.2202381e-03 5.2009877e-03 -3.7735444e-05 
5.1795389e-03 5.2247457e-03 -1.1330730e-04 
5.1189824e-03 5.1125237e-03 -8.1231228e-05 
5.2810679e-03 5.3293505e-03 -8.5149964e-05 
5.2887113e-03 5.3236070e-03 -6.9491645e-05 
5.1808804e-03 5.1506148e-03 -3.9127204e-05 
5.1410329e-03 5.1757614e-03 -1.1472083e-04 
5.2229301e-03 5.2102632e-03 -4.3225060e-05 
5.1104487e-03 5.1232181e-03 -1.0251551e-04 
5.1810443e-03 5.2164141e-03 -1.0335293e-04 
5.2391361e-03 5.2415729e-03 -5.3030642e-05 
5.1305033e-03 5.0974027e-03 -5.1766569e-05 
5.1836064e-03 5.1525505e-03 -3.7404126e-05 
5.1426026e-03 5.1763435e-03 -1.1352928e-04 
5.0903386e-03 5.0749350e-03 -8.1019614e-05 
5.2816365e-03 5.3380537e-03 -9.3127383e-05 
5.1132622e-03 5.1034247e-03 -7.9613725e-05 
5.1449281e-03 5.1032593e-03 -3.8769980e-05 
5.2034273e-03 5.2300664e-03 -8.8091510e-05 
5.0823926e-03 5.0826930e-03 -9.8707518e-05 
5.1048282e-03 5.1282444e-03 -1.1479109e-04 
5.0996933e-03 5.0629037e-03 -5.7360816e-05 
5.1863459e-03 5.1616021e-03 -4.2605938e-05 
5.2332850e-03 5.2661323e-03 -8.5007065e-05 
5.2408669e-03 5.2604177e-03 -6.9422771e-05 
5.1522930e-03 5.1767412e-03 -1.0164345e-04 
5.1040817e-03 5.0590648e-03 -4.7927999e-05 
5.0619827e-03 5.0377641e-03 -8.0831654e-05 
5.1476210e-03 5.1050815e-03 -3.6973976e-05 
5.1062643e-03 5.1289066e-03 -1.1373319e-04 
5.0747255e-03 5.0308914e-03 -5.7890309e-05 
5.0544799e-03 5.0472808e-03 -9.9742800e-05 
5.1095574e-03 5.0566341e-03 -3.8433347e-05 
5.0692563e-03 5.0818268e-03 -1.1477611e-04 
5.2336925e-03 5.2746926e-03 -9.3094837e-05 
5.1502916e-03 5.1138289e-03 -4.2021158e-05 
5.0338823e-03 5.0009289e-03 -8.0614278e-05 
5.1075686e-03 5.1209084e-03 -1.0433085e-04 
5.0622183e-03 5.0071590e-03 -5.0558283e-05 
5.1695704e-03 5.1507871e-03 -5.3687480e-05 
5.1121446e-03 5.0584082e-03 -3.6635833e-05 
5.0811172e-03 5.0480678e-03 -6.6428671e-05 
5.0304565e-03 5.0190706e-03 -1.0282105e-04 
5.1857322e-03 5.2034194e-03 -8.4986532e-05 
5.0705974e-03 5.0823856e-03 -1.1392905e-04 
5.1932456e-03 5.1977448e-03 -6.9482914e-05 
5.0746896e-03 5.0110053e-03 -3.8187998e-05 
5.1293802e-03 5.1335315e-03 -8.8824796e-05 