# vtk DataFile Version 4.0
vtk output
ASCII
DATASET UNSTRUCTURED_GRID
POINTS 4496 float
-4.3633327e-01 9.6409470e-01 4.4200001e+01 
-4.3633258e-01 9.6409065e-01 4.4074627e+01 
-3.2152572e-01 9.1279918e-01 4.4200001e+01 
-3.8534868e-01 8.4052670e-01 4.4200001e+01 
-3.9589554e-01 8.5545403e-01 4.4010014e+01 
-3.2616228e-01 9.1667932e-01 4.4011734e+01 
-4.3633190e-01 9.6408653e-01 4.3948376e+01 
-2.1293370e-01 8.4677851e-01 4.4200001e+01 
-2.9042658e-01 7.3813015e-01 4.4200001e+01 
-2.1010752e-01 8.4669363e-01 4.4073502e+01 
-2.8908840e-01 7.3604190e-01 4.4072292e+01 
-3.9589015e-01 8.5505831e-01 4.3883316e+01 
-3.2487559e-01 9.1697580e-01 4.3885036e+01 
-2.0722924e-01 8.4660655e-01 4.3944645e+01 
-1.1981077e-01 7.7773046e-01 4.4200001e+01 
-2.8772619e-01 7.3391593e-01 4.3942276e+01 
-4.3633121e-01 9.6408242e-01 4.3821228e+01 
-1.9739023e-01 6.6468561e-01 4.4200001e+01 
-2.9444304e-01 7.8727525e-01 4.3879974e+01 
-8.7554991e-02 7.5255024e-01 4.4042213e+01 
-1.6445170e-01 6.4084798e-01 4.4041008e+01 
-3.2357255e-01 9.1726828e-01 4.3757431e+01 
-3.9587301e-01 8.5463828e-01 4.3755711e+01 
-2.0429766e-01 8.4651643e-01 4.3813354e+01 
-2.8633916e-01 7.3175091e-01 4.3809875e+01 
-2.6899619e-02 6.8901783e-01 4.4200001e+01 
-1.0567340e-01 7.7152997e-01 4.3875790e+01 
-4.3633053e-01 9.6407831e-01 4.3693161e+01 
-8.7133333e-02 5.9509218e-01 4.4200001e+01 
-1.8777622e-01 6.5475601e-01 4.3873402e+01 
-2.0131156e-01 8.4642249e-01 4.3679543e+01 
-3.2225290e-01 9.1755641e-01 4.3628902e+01 
-3.9584404e-01 8.5419410e-01 4.3627178e+01 
-1.0114321e-03 6.6670936e-01 4.3939713e+01 
-2.8492665e-01 7.2954547e-01 4.3675007e+01 
-1.0131179e-01 7.7015632e-01 4.3743176e+01 
-6.0682178e-02 5.7631296e-01 4.3938457e+01 
3.9444737e-02 6.2338209e-01 4.4053139e+01 
-1.8470748e-01 6.5131217e-01 4.3739727e+01 
-7.0938184e-03 5.4737431e-01 4.4052326e+01 
-4.3632981e-01 9.6407413e-01 4.3564159e+01 
7.6947339e-02 5.8804804e-01 4.4200001e+01 
-1.2721874e-02 6.8194175e-01 4.3817982e+01 
-7.7214435e-02 5.8474159e-01 4.3819649e+01 
4.0195532e-02 5.2425718e-01 4.4200001e+01 
-1.9826968e-01 8.4632379e-01 4.3543118e+01 
-9.6842363e-02 7.6872379e-01 4.3607994e+01 
-3.2091641e-01 9.1783977e-01 4.3499420e+01 
-3.9580306e-01 8.5372573e-01 4.3497700e+01 
-2.8348783e-01 7.2729832e-01 4.3537586e+01 
-1.8155001e-01 6.4778340e-01 4.3603539e+01 
1.5678726e-01 5.2239102e-01 4.4060219e+01 
1.0298219e-02 6.6009766e-01 4.3674484e+01 
1.3250886e-01 4.7546524e-01 4.4058990e+01 
-4.3632913e-01 9.6407002e-01 4.3434200e+01 
-5.0139543e-02 5.6696451e-01 4.3671154e+01 
1.3504514e-01 5.4209155e-01 4.3856747e+01 
1.0361936e-01 4.8715758e-01 4.3855240e+01 
2.0846681e-01 4.8028421e-01 4.4200001e+01 
1.9279444e-01 4.4799727e-01 4.4200001e+01 
-9.2261828e-02 7.6722860e-01 4.3470158e+01 
-1.4701239e-03 6.7547697e-01 4.3552124e+01 
-1.9517080e-01 8.4621930e-01 4.3403992e+01 
-3.1956279e-01 9.1811794e-01 4.3368977e+01 
-3.9574999e-01 8.5323322e-01 4.3367252e+01 
-1.7830023e-01 6.4416617e-01 4.3464752e+01 
-6.7131944e-02 5.7555372e-01 4.3547829e+01 
-2.8202194e-01 7.2500783e-01 4.3397518e+01 
-4.3632844e-01 9.6406585e-01 4.3303261e+01 
1.5138821e-01 5.3037512e-01 4.3609200e+01 
1.2119007e-01 4.7490793e-01 4.3606068e+01 
-8.7566733e-02 7.6566672e-01 4.3329563e+01 
-1.7495437e-01 6.4045686e-01 4.3323273e+01 
-3.1819177e-01 9.1839045e-01 4.3237537e+01 
-3.9568463e-01 8.5271639e-01 4.3235813e+01 
2.2269404e-02 6.5294570e-01 4.3398811e+01 
-1.9201367e-01 8.4610778e-01 4.3262066e+01 
-3.8899176e-02 5.5709696e-01 4.3393635e+01 
-2.8052819e-01 7.2267252e-01 4.3254715e+01 
3.7877345e-01 3.8273901e-01 4.4200001e+01 
-4.3632776e-01 9.6406174e-01 4.3171322e+01 
3.9241230e-01 3.7329337e-01 4.3965439e+01 
1.0283732e-02 6.6872352e-01 4.3271511e+01 
-5.6385640e-02 5.6585240e-01 4.3265472e+01 
-8.2753494e-02 7.6403379e-01 4.3186119e+01 
-4.0345609e-01 8.6371827e-01 4.3104889e+01 
-3.1680310e-01 9.1865683e-01 4.3105087e+01 
-1.7150842e-01 6.3665158e-01 4.3179005e+01 
-1.8879703e-01 8.4598809e-01 4.3117241e+01 
-2.7900568e-01 7.2029078e-01 4.3109074e+01 
4.0610775e-01 3.6380205e-01 4.3729839e+01 
1.6776134e-01 5.1882964e-01 4.3331150e+01 
-4.3632707e-01 9.6405768e-01 4.3038357e+01 
1.4031014e-01 4.6124566e-01 4.3307755e+01 
3.4952711e-02 6.4519531e-01 4.3111935e+01 
-7.7818394e-02 7.6232505e-01 4.3039719e+01 
-3.1539652e-01 9.1891652e-01 4.2971603e+01 
-3.9551663e-01 8.5160977e-01 4.2969879e+01 
-2.6899155e-02 5.4666573e-01 4.3105160e+01 
-1.6795819e-01 6.3274628e-01 4.3031849e+01 
-1.8551964e-01 8.4585863e-01 4.2969406e+01 
4.1985780e-01 3.5425979e-01 4.3493168e+01 
-2.7745360e-01 7.1786088e-01 4.2960495e+01 
-4.3632638e-01 9.6405357e-01 4.2904346e+01 
2.2723136e-02 6.6139150e-01 4.2979332e+01 
-4.4916678e-02 5.5559248e-01 4.2971806e+01 
-3.1397179e-01 9.1916907e-01 4.2837063e+01 
-3.9541367e-01 8.5101974e-01 4.2835335e+01 
-7.2757579e-02 7.6053542e-01 4.2890255e+01 
-1.6429928e-01 6.2873662e-01 4.2881699e+01 
1.8463810e-01 5.0694346e-01 4.3035332e+01 
-1.8218029e-01 8.4571803e-01 4.2818455e+01 
1.5503895e-01 4.5003417e-01 4.3027725e+01 
-2.7587104e-01 7.1538109e-01 4.2808868e+01 
4.3366045e-01 3.4466109e-01 4.3255390e+01 
-4.3632573e-01 9.6404958e-01 4.2769268e+01 
-3.8429454e-01 8.3484912e-01 4.2710606e+01 
-3.1252861e-01 9.1941386e-01 4.2701439e+01 
4.8404284e-02 6.3678014e-01 4.2813030e+01 
-1.4070326e-02 5.3562075e-01 4.2804932e+01 
-6.7567028e-02 7.5865942e-01 4.2737610e+01 
-1.6052702e-01 6.2461799e-01 4.2728443e+01 
-1.7877772e-01 8.4556442e-01 4.2664265e+01 
-4.3632504e-01 9.6404558e-01 4.2633099e+01 
-2.7425703e-01 7.1284944e-01 4.2654083e+01 
4.4751364e-01 3.3500037e-01 4.3016472e+01 
3.5901129e-02 6.5341437e-01 4.2674721e+01 
-3.7959340e-01 8.2794034e-01 4.2568317e+01 
-3.1106678e-01 9.1965032e-01 4.2564713e+01 
-3.2659348e-02 5.4472327e-01 4.2665997e+01 
2.0396979e-01 4.9291667e-01 4.2740131e+01 
-6.2242586e-02 7.5669110e-01 4.2581669e+01 
1.7765003e-01 4.3475360e-01 4.2732578e+01 
-1.5663649e-01 6.2038553e-01 4.2571964e+01 
-4.3632439e-01 9.6404165e-01 4.2495808e+01 
-1.7531081e-01 8.4539592e-01 4.2506718e+01 
-2.7261066e-01 7.1026409e-01 4.2496017e+01 
-3.0958602e-01 9.1987789e-01 4.2426853e+01 
-3.7859210e-01 8.2613736e-01 4.2421188e+01 
4.6141517e-01 3.2527190e-01 4.2776375e+01 
6.2686495e-02 6.2762415e-01 4.2501175e+01 
-3.3570320e-04 5.2390522e-01 4.2492062e+01 
-5.6779940e-02 7.5462401e-01 4.2422298e+01 
-4.3632373e-01 9.6403772e-01 4.2357380e+01 
-1.5262254e-01 6.1603409e-01 4.2412144e+01 
-1.7177837e-01 8.4521037e-01 4.2345684e+01 
-2.7093092e-01 7.0762289e-01 4.2334549e+01 
-3.0808610e-01 9.2009580e-01 4.2287842e+01 
-3.8275370e-01 8.3137155e-01 4.2275047e+01 
4.9876589e-02 6.4471585e-01 4.2356720e+01 
-1.9539909e-02 5.3318781e-01 4.2347118e+01 
-4.3632311e-01 9.6403396e-01 4.2217781e+01 
2.1959943e-01 4.8236796e-01 4.2385345e+01 
-5.1174615e-02 7.5245124e-01 4.2259373e+01 
1.9034323e-01 4.2346162e-01 4.2378918e+01 
-1.4847966e-01 6.1155808e-01 4.2248856e+01 
4.7536272e-01 3.1546980e-01 4.2535065e+01 
-1.6817927e-01 8.4500539e-01 4.2181026e+01 
-2.6921678e-01 7.0492369e-01 4.2169544e+01 
-3.0656675e-01 9.2030340e-01 4.2147648e+01 
-3.9470181e-01 8.4769493e-01 4.2145920e+01 
7.7868804e-02 6.1763972e-01 4.2175373e+01 
-4.3632248e-01 9.6403021e-01 4.2076988e+01 
1.4390758e-02 5.1145434e-01 4.2165581e+01 
-4.5421973e-02 7.5016522e-01 4.2092751e+01 
-1.4420210e-01 6.0695171e-01 4.2081959e+01 
-3.0502778e-01 9.2049998e-01 4.2006248e+01 
-4.0175444e-01 8.5747409e-01 4.2004128e+01 
-1.6451253e-01 8.4477836e-01 4.2012604e+01 
4.8935395e-01 3.0558801e-01 4.2292507e+01 
-2.6746723e-01 7.0216429e-01 4.2000870e+01 
6.4714879e-02 6.3520777e-01 4.2024277e+01 
-4.3632188e-01 9.6402657e-01 4.1934975e+01 
-5.4755262e-03 5.2092212e-01 4.2014156e+01 
-2.3078828e-01 8.1064087e-01 4.1931458e+01 
2.3550548e-01 4.7116494e-01 4.2073269e+01 
2.0610523e-01 4.1123796e-01 4.2066772e+01 
-3.9517213e-02 7.4775779e-01 4.1922287e+01 
-1.3978374e-01 6.0220873e-01 4.1911320e+01 
-3.0346894e-01 9.2068475e-01 4.1863613e+01 
-3.9432141e-01 8.4618556e-01 4.1861881e+01 
-1.6077711e-01 8.4452641e-01 4.1840263e+01 
-2.6568118e-01 6.9934219e-01 4.1828377e+01 
-4.3632129e-01 9.6402299e-01 4.1791718e+01 
5.0338638e-01 2.9562023e-01 4.2048656e+01 
9.4028555e-02 6.0672593e-01 4.1834507e+01 
3.0205652e-02 4.9819478e-01 4.1824417e+01 
-3.8116732e-01 8.2744831e-01 4.1725647e+01 
-3.0189002e-01 9.2085695e-01 4.1719719e+01 
-3.3455357e-02 7.4522001e-01 4.1747829e+01 
-1.3521814e-01 5.9732240e-01 4.1736786e+01 
-4.3632072e-01 9.6401960e-01 4.1647179e+01 
-1.5697217e-01 8.4424627e-01 4.1663853e+01 
-2.6385748e-01 6.9645494e-01 4.1651920e+01 
8.0488607e-02 6.2478805e-01 4.1676235e+01 
2.6870471e-01 4.4547972e-01 4.1752304e+01 
9.6269641e-03 5.0785345e-01 4.1665993e+01 
2.4764967e-01 3.8646612e-01 4.1743168e+01 
-3.0029076e-01 9.2101562e-01 4.1574532e+01 
-3.9388368e-01 8.4456980e-01 4.1572796e+01 
5.1745731e-01 2.8556010e-01 4.1803486e+01 
-2.7231261e-02 7.4254233e-01 4.1569210e+01 
-1.3049847e-01 5.9228569e-01 4.1558201e+01 
-4.3632016e-01 9.6401632e-01 4.1501339e+01 
-1.5309690e-01 8.4393430e-01 4.1483204e+01 
-2.6199502e-01 6.9349992e-01 4.1471333e+01 
-2.9867104e-01 9.2115986e-01 4.1428024e+01 
-3.9364263e-01 8.4372103e-01 4.1426289e+01 
1.1125199e-01 5.9476525e-01 4.1477348e+01 
4.7217656e-02 4.8404291e-01 4.1467384e+01 
-4.3631962e-01 9.6401310e-01 4.1354160e+01 
-2.0839609e-02 7.3971421e-01 4.1386261e+01 
-1.2561750e-01 5.8709091e-01 4.1375404e+01 
5.3156406e-01 2.7540097e-01 4.1556946e+01 
-1.4915068e-01 8.4358656e-01 4.1298138e+01 
-2.9703063e-01 9.2128879e-01 4.1280167e+01 
-3.9338648e-01 8.4284443e-01 4.1278431e+01 
-2.6009262e-01 6.9047421e-01 4.1286449e+01 
2.9365057e-01 4.2687622e-01 4.1391586e+01 
9.7278498e-02 6.1333776e-01 4.1311302e+01 
2.7470219e-01 3.6807936e-01 4.1382729e+01 
2.5872495e-02 4.9389899e-01 4.1301384e+01 
-4.3631911e-01 9.6401012e-01 4.1205620e+01 
-1.4274905e-02 7.3672432e-01 4.1198803e+01 
-1.2056758e-01 5.8173001e-01 4.1188221e+01 
-2.9536936e-01 9.2140132e-01 4.1130928e+01 
[...]
POINT_DATA 4496
FIELD FieldData 5
DISPLACEMENT 3 4496  float
1.9572936e-02 1.9338446e-02 -1.7755810e-04 
1.9491477e-02 1.9244289e-02 -1.7749281e-04 
1.9591862e-02 1.9380843e-02 -2.1367794e-04 
1.9618595e-02 1.9357309e-02 -1.1792804e-04 
1.9489635e-02 1.9210732e-02 -1.2218734e-04 
1.9468104e-02 1.9237736e-02 -2.1348216e-04 
1.9409457e-02 1.9149490e-02 -1.7742574e-04 
1.9616241e-02 1.9420965e-02 -2.3470777e-04 
1.9656427e-02 1.9392390e-02 -1.0275180e-04 
1.9534070e-02 1.9326996e-02 -2.3641771e-04 
1.9574208e-02 1.9296965e-02 -1.0198955e-04 
1.9407466e-02 1.9115599e-02 -1.2182975e-04 
1.9385686e-02 1.9143069e-02 -2.1447828e-04 
1.9450376e-02 1.9231269e-02 -2.3815589e-04 
1.9641746e-02 1.9455379e-02 -2.4341265e-04 
1.9490503e-02 1.9199828e-02 -1.0121909e-04 
1.9326869e-02 1.9054035e-02 -1.7735639e-04 
1.9683562e-02 1.9426774e-02 -1.0809005e-04 
1.9430308e-02 1.9150542e-02 -1.3688477e-04 
1.9548506e-02 1.9348778e-02 -2.4540047e-04 
1.9589033e-02 1.9319514e-02 -1.1152644e-04 
1.9302702e-02 1.9047743e-02 -2.1546384e-04 
1.9324725e-02 1.9019810e-02 -1.2146877e-04 
1.9365111e-02 1.9133743e-02 -2.3992392e-04 
1.9405264e-02 1.9100914e-02 -1.0043331e-04 
1.9674528e-02 1.9489739e-02 -2.3721576e-04 
1.9433353e-02 1.9217055e-02 -2.4778151e-04 
1.9243730e-02 1.8957915e-02 -1.7727999e-04 
1.9709283e-02 1.9467529e-02 -1.2750900e-04 
1.9474961e-02 1.9185005e-02 -1.0672603e-04 
1.9278232e-02 1.9034354e-02 -2.4171721e-04 
1.9219140e-02 1.8951742e-02 -2.1646386e-04 
1.9241417e-02 1.8923366e-02 -1.2110588e-04 
1.9513600e-02 1.9303747e-02 -2.3717149e-04 
1.9318437e-02 1.9000176e-02 -9.9637684e-05 
1.9347696e-02 1.9119043e-02 -2.4951278e-04 
1.9546209e-02 1.9280810e-02 -1.3047167e-04 
1.9603329e-02 1.9403936e-02 -2.3099824e-04 
1.9389343e-02 1.9085741e-02 -1.0607579e-04 
1.9630926e-02 1.9386167e-02 -1.4363509e-04 
1.9159989e-02 1.8861147e-02 -1.7720512e-04 
1.9711860e-02 1.9528171e-02 -2.2891971e-04 
1.9428853e-02 1.9207945e-02 -2.4093466e-04 
1.9465858e-02 1.9185442e-02 -1.2599534e-04 
1.9735478e-02 1.9514615e-02 -1.5709357e-04 
1.9189673e-02 1.8933034e-02 -2.4353688e-04 
1.9260401e-02 1.9019146e-02 -2.5126422e-04 
1.9134991e-02 1.8855073e-02 -2.1745739e-04 
1.9157518e-02 1.8826241e-02 -1.2071116e-04 
1.9229989e-02 1.8897556e-02 -9.8829085e-05 
1.9302132e-02 1.8984631e-02 -1.0541745e-04 
1.9645259e-02 1.9452658e-02 -2.3146182e-04 
1.9343648e-02 1.9108608e-02 -2.3943020e-04 
1.9661827e-02 1.9442780e-02 -1.8040357e-04 
1.9075669e-02 1.8763667e-02 -1.7711929e-04 
1.9375868e-02 1.9083865e-02 -1.3018009e-04 
1.9505681e-02 1.9291664e-02 -2.3202563e-04 
1.9525006e-02 1.9278953e-02 -1.7029337e-04 
1.9751726e-02 1.9576862e-02 -2.3351134e-04 
1.9763682e-02 1.9571081e-02 -1.9904354e-04 
1.9171422e-02 1.8917298e-02 -2.5304241e-04 
1.9258466e-02 1.9012330e-02 -2.4325472e-04 
1.9099388e-02 1.8829739e-02 -2.4538609e-04 
1.9050229e-02 1.8757701e-02 -2.1846652e-04 
1.9073023e-02 1.8728431e-02 -1.2032242e-04 
1.9213269e-02 1.8881628e-02 -1.0476416e-04 
1.9292524e-02 1.8984962e-02 -1.2553891e-04 
1.9139841e-02 1.8792985e-02 -9.8012373e-05 
1.8990731e-02 1.8665507e-02 -1.7703959e-04 
1.9349035e-02 1.9111566e-02 -2.3373865e-04 
1.9367460e-02 1.9098114e-02 -1.7239494e-04 
1.9080697e-02 1.8813452e-02 -2.5482662e-04 
1.9122694e-02 1.8776651e-02 -1.0409821e-04 
1.8964875e-02 1.8659648e-02 -2.1946375e-04 
1.8987929e-02 1.8629929e-02 -1.1992841e-04 
1.9167136e-02 1.8905874e-02 -2.4169538e-04 
1.9007318e-02 1.8724382e-02 -2.4725345e-04 
1.9199075e-02 1.8879524e-02 -1.2995920e-04 
1.9047951e-02 1.8686406e-02 -9.7180186e-05 
1.9787800e-02 1.9639878e-02 -2.7099560e-04 
1.8905178e-02 1.8566631e-02 -1.7696018e-04 
1.9638710e-02 1.9468490e-02 -2.7265292e-04 
1.9078635e-02 1.8805835e-02 -2.4566695e-04 
1.9112540e-02 1.8776851e-02 -1.2512966e-04 
1.8988177e-02 1.8707523e-02 -2.5663574e-04 
1.8898932e-02 1.8528953e-02 -1.2308208e-04 
1.8878862e-02 1.8560845e-02 -2.2048007e-04 
1.9030374e-02 1.8669667e-02 -1.0343554e-04 
1.8913409e-02 1.8616926e-02 -2.4914698e-04 
1.8954286e-02 1.8577775e-02 -9.6319985e-05 
1.9488912e-02 1.9296275e-02 -2.7431227e-04 
1.9172471e-02 1.8908536e-02 -2.3558596e-04 
1.8818982e-02 1.8467059e-02 -1.7687739e-04 
1.9178435e-02 1.8880891e-02 -1.7443617e-04 
1.8983614e-02 1.8695021e-02 -2.4396270e-04 
1.8893795e-02 1.8599460e-02 -2.5845139e-04 
1.8792266e-02 1.8461352e-02 -2.2147057e-04 
1.8815830e-02 1.8430749e-02 -1.1908674e-04 
1.9015385e-02 1.8667292e-02 -1.2981612e-04 
1.8936209e-02 1.8560577e-02 -1.0276011e-04 
1.8817589e-02 1.8507261e-02 -2.5105511e-04 
1.9338388e-02 1.9123133e-02 -2.7597483e-04 
1.8858727e-02 1.8466987e-02 -9.5461881e-05 
1.8732199e-02 1.8366724e-02 -1.7677262e-04 
1.8891573e-02 1.8590970e-02 -2.4807543e-04 
1.8925443e-02 1.8560613e-02 -1.2478896e-04 
1.8705009e-02 1.8361112e-02 -2.2249285e-04 
1.8728850e-02 1.8330088e-02 -1.1866650e-04 
1.8797485e-02 1.8489169e-02 -2.6028854e-04 
1.8840181e-02 1.8449351e-02 -1.0209689e-04 
1.8984495e-02 1.8692326e-02 -2.3750661e-04 
1.8719785e-02 1.8395321e-02 -2.5298304e-04 
1.9000407e-02 1.8675804e-02 -1.7548660e-04 
1.8761272e-02 1.8354025e-02 -9.4600684e-05 
1.9187139e-02 1.8949170e-02 -2.7767968e-04 
1.8644722e-02 1.8265719e-02 -1.7666881e-04 
1.8653927e-02 1.8240863e-02 -1.1369921e-04 
1.8617112e-02 1.8260168e-02 -2.2347155e-04 
1.8792598e-02 1.8475521e-02 -2.4622070e-04 
1.8824318e-02 1.8446673e-02 -1.2978165e-04 
1.8699165e-02 1.8376607e-02 -2.6213325e-04 
1.8742179e-02 1.8335888e-02 -1.0141377e-04 
1.8619969e-02 1.8281100e-02 -2.5492639e-04 
1.8556617e-02 1.8163955e-02 -1.7654822e-04 
1.8661804e-02 1.8238733e-02 -9.3713883e-05 
1.9035116e-02 1.8774290e-02 -2.7934951e-04 
1.8696776e-02 1.8367199e-02 -2.5046789e-04 
1.8564312e-02 1.8136222e-02 -1.1148350e-04 
1.8528560e-02 1.8158449e-02 -2.2442943e-04 
1.8730737e-02 1.8335735e-02 -1.2453503e-04 
1.8797722e-02 1.8477535e-02 -2.3942796e-04 
1.8598830e-02 1.8261688e-02 -2.6400218e-04 
1.8814022e-02 1.8462302e-02 -1.7863144e-04 
1.8642189e-02 1.8220142e-02 -1.0078659e-04 
1.8467871e-02 1.8061418e-02 -1.7639589e-04 
1.8518019e-02 1.8164461e-02 -2.5690891e-04 
1.8560275e-02 1.8121148e-02 -9.2823269e-05 
1.8439304e-02 1.8055988e-02 -2.2543088e-04 
1.8469734e-02 1.8026749e-02 -1.1072851e-04 
1.8882398e-02 1.8598661e-02 -2.8100912e-04 
1.8593576e-02 1.8246809e-02 -2.4843882e-04 
1.8625379e-02 1.8217126e-02 -1.2985180e-04 
1.8496348e-02 1.8144347e-02 -2.6582883e-04 
1.8378410e-02 1.7958175e-02 -1.7626690e-04 
1.8540094e-02 1.8102024e-02 -1.0012242e-04 
1.8413903e-02 1.8045338e-02 -2.5887758e-04 
1.8456623e-02 1.8001147e-02 -9.1915732e-05 
1.8349400e-02 1.7952785e-02 -2.2640669e-04 
1.8373318e-02 1.7916260e-02 -1.1189155e-04 
1.8493723e-02 1.8133914e-02 -2.5280990e-04 
1.8527953e-02 1.8101666e-02 -1.2435872e-04 
1.8288286e-02 1.7854190e-02 -1.7612346e-04 
1.8571083e-02 1.8216873e-02 -2.4154689e-04 
1.8391674e-02 1.8024510e-02 -2.6766112e-04 
1.8588267e-02 1.8201491e-02 -1.7837391e-04 
1.8435854e-02 1.7981501e-02 -9.9464596e-05 
1.8728923e-02 1.8422129e-02 -2.8264278e-04 
1.8307531e-02 1.7923657e-02 -2.6086299e-04 
1.8350752e-02 1.7878648e-02 -9.0995818e-05 
1.8258842e-02 1.7848860e-02 -2.2735886e-04 
1.8284004e-02 1.7815784e-02 -1.1629073e-04 
1.8386023e-02 1.8008335e-02 -2.5060959e-04 
1.8197464e-02 1.7749405e-02 -1.7598657e-04 
1.8418061e-02 1.7978134e-02 -1.3009421e-04 
1.8284731e-02 1.7902093e-02 -2.6949914e-04 
1.8329438e-02 1.7858468e-02 -9.8785182e-05 
1.8167477e-02 1.7744057e-02 -2.2836796e-04 
1.8188855e-02 1.7707685e-02 -1.1895589e-04 
1.8198822e-02 1.7799336e-02 -2.6286257e-04 
1.8574694e-02 1.8244741e-02 -2.8428293e-04 
1.8242676e-02 1.7753635e-02 -9.0026195e-05 
1.8281884e-02 1.7890628e-02 -2.5508294e-04 
1.8105820e-02 1.7643793e-02 -1.7585805e-04 
1.8316524e-02 1.7857892e-02 -1.2432676e-04 
1.8158760e-02 1.7715093e-02 -1.9448053e-04 
1.8372646e-02 1.7988764e-02 -2.4338946e-04 
1.8390032e-02 1.7973354e-02 -1.7947074e-04 
1.8175449e-02 1.7777037e-02 -2.7134761e-04 
1.8220708e-02 1.7732872e-02 -9.8102762e-05 
1.8075367e-02 1.7638428e-02 -2.2934028e-04 
1.8101044e-02 1.7604530e-02 -1.1528473e-04 
1.8087685e-02 1.7672339e-02 -2.6488031e-04 
1.8132253e-02 1.7625896e-02 -8.9047906e-05 
1.8013483e-02 1.7537348e-02 -1.7568425e-04 
1.8419778e-02 1.8066665e-02 -2.8592913e-04 
1.8169334e-02 1.7759474e-02 -2.5271950e-04 
1.8201774e-02 1.7729091e-02 -1.3048534e-04 
1.8019952e-02 1.7508065e-02 -1.0970826e-04 
1.7982615e-02 1.7532069e-02 -2.3026243e-04 
1.8063687e-02 1.7649166e-02 -2.7319384e-04 
1.8109566e-02 1.7604539e-02 -9.7410142e-05 
1.7920461e-02 1.7430088e-02 -1.7547277e-04 
1.7974047e-02 1.7542442e-02 -2.6690893e-04 
1.8019293e-02 1.7495390e-02 -8.8081804e-05 
1.8060565e-02 1.7636601e-02 -2.5726674e-04 
1.8173847e-02 1.7760633e-02 -2.4564276e-04 
1.8095760e-02 1.7603701e-02 -1.2443213e-04 
1.8189048e-02 1.7746301e-02 -1.8794645e-04 
1.7889053e-02 1.7424859e-02 -2.3123545e-04 
1.7915316e-02 1.7390175e-02 -1.1415290e-04 
1.8264249e-02 1.7888049e-02 -2.8755193e-04 
1.7949397e-02 1.7518416e-02 -2.7503702e-04 
1.7995963e-02 1.7473467e-02 -9.6768803e-05 
1.7826660e-02 1.7322088e-02 -1.7528003e-04 
1.7857783e-02 1.7409623e-02 -2.6890327e-04 
1.7903812e-02 1.7362082e-02 -8.7117391e-05 
1.7794788e-02 1.7316848e-02 -2.3214995e-04 
1.7821290e-02 1.7281815e-02 -1.1363636e-04 
1.7942786e-02 1.7499436e-02 -2.5472324e-04 
1.7975818e-02 1.7469298e-02 -1.3100405e-04 
1.7732050e-02 1.7213318e-02 -1.7509896e-04 
1.7832471e-02 1.7384732e-02 -2.7682885e-04 
1.7879779e-02 1.7339513e-02 -9.6076525e-05 
1.8107947e-02 1.7708508e-02 -2.8909711e-04 
1.7738821e-02 1.7273815e-02 -2.7088186e-04 
1.7699715e-02 1.7208068e-02 -2.3304879e-04 
1.7726459e-02 1.7172595e-02 -1.1302454e-04 
1.7785739e-02 1.7225821e-02 -8.6059496e-05 
1.7947007e-02 1.7500401e-02 -2.4787051e-04 
1.7829061e-02 1.7370986e-02 -2.5937019e-04 
1.7962167e-02 1.7487124e-02 -1.9184012e-04 
1.7865067e-02 1.7338403e-02 -1.2461809e-04 
1.7636724e-02 1.7103571e-02 -1.7489400e-04 
1.7712850e-02 1.7247995e-02 -2.7864013e-04 
1.7760888e-02 1.7202578e-02 -9.5393531e-05 
1.7603857e-02 1.7098309e-02 -2.3399355e-04 
1.7630905e-02 1.7062504e-02 -1.1245911e-04 
1.7617080e-02 1.7134821e-02 -2.7293770e-04 
1.7664891e-02 1.7086562e-02 -8.5025429e-05 
1.7950883e-02 1.7528253e-02 -2.9067229e-04 
1.7540522e-02 1.6993076e-02 -1.7468561e-04 
1.7705649e-02 1.7227432e-02 -2.5661834e-04 
1.7739415e-02 1.7197879e-02 -1.3176122e-04 
1.7507169e-02 1.6987748e-02 -2.3492672e-04 
1.7534479e-02 1.6951563e-02 -1.1182692e-04 
1.7590333e-02 1.7107984e-02 -2.8041191e-04 
1.7639279e-02 1.7062606e-02 -9.4723400e-05 
1.7443575e-02 1.6881606e-02 -1.7445021e-04 
1.7492415e-02 1.6992601e-02 -2.7487773e-04 
1.7541168e-02 1.6944092e-02 -8.3942119e-05 
1.7709469e-02 1.7228210e-02 -2.5024026e-04 
1.7724805e-02 1.7216366e-02 -1.9615432e-04 
1.7582824e-02 1.7086623e-02 -2.5745502e-04 
1.7793152e-02 1.7347408e-02 -2.9221748e-04 
1.7409729e-02 1.6876291e-02 -2.3578510e-04 
1.7437283e-02 1.6839799e-02 -1.1127561e-04 
1.7617017e-02 1.7057655e-02 -1.3215707e-04 
1.7464928e-02 1.6964778e-02 -2.8212249e-04 
1.7514730e-02 1.6919404e-02 -9.4068804e-05 
1.7345723e-02 1.6769418e-02 -1.7421768e-04 
1.7364640e-02 1.6846964e-02 -2.7687199e-04 
1.7414605e-02 1.6798416e-02 -8.2865685e-05 
1.7311418e-02 1.6764101e-02 -2.3661692e-04 
1.7339196e-02 1.6727157e-02 -1.1060741e-04 
1.7457047e-02 1.6942522e-02 -2.5829350e-04 
1.7357865e-02 1.6767439e-02 -1.4533752e-04 
1.7491754e-02 1.6914239e-02 -1.3270142e-04 
1.7247079e-02 1.6656213e-02 -1.7393970e-04 
1.7634546e-02 1.7165480e-02 -2.9369301e-04 
1.7509608e-02 1.6998891e-02 -2.5125421e-04 
1.7336451e-02 1.6818142e-02 -2.8373752e-04 
1.7526992e-02 1.6985957e-02 -1.9046960e-04 
1.7387252e-02 1.6773058e-02 -9.3390467e-05 
1.7212214e-02 1.6650829e-02 -2.3740495e-04 
1.7240252e-02 1.6613590e-02 -1.0996878e-04 
1.7233944e-02 1.6698018e-02 -2.7871030e-04 
1.7284892e-02 1.6649468e-02 -8.1850128e-05 
1.7147556e-02 1.6542254e-02 -1.7369572e-04 
1.7328233e-02 1.6795045e-02 -2.5911923e-04 
1.7363477e-02 1.6767520e-02 -1.3323598e-04 
1.7204845e-02 1.6668051e-02 -2.8539967e-04 
1.7112263e-02 1.6536767e-02 -2.3822641e-04 
1.7140554e-02 1.6499203e-02 -1.0929924e-04 
1.7256632e-02 1.6623275e-02 -9.2670969e-05 
1.7475033e-02 1.6983012e-02 -2.9522867e-04 
1.7099822e-02 1.6545409e-02 -2.8067944e-04 
1.7047198e-02 1.6427351e-02 -1.7340144e-04 
1.7361779e-02 1.6807370e-02 -2.1071220e-04 
1.7348131e-02 1.6816480e-02 -2.5672570e-04 
1.7152037e-02 1.6497014e-02 -8.0655496e-05 
1.7196199e-02 1.6644064e-02 -2.5981062e-04 
1.7232010e-02 1.6617373e-02 -1.3389817e-04 
1.7011363e-02 1.6421771e-02 -2.3906048e-04 
1.7039888e-02 1.6383894e-02 -1.0861553e-04 
1.7069876e-02 1.6514260e-02 -2.8702006e-04 
1.7122841e-02 1.6469968e-02 -9.1981907e-05 
1.6945867e-02 1.6311496e-02 -1.7308655e-04 
1.7314842e-02 1.6799696e-02 -2.9660092e-04 
1.6962228e-02 1.6388990e-02 -2.8262543e-04 
1.7015852e-02 1.6340883e-02 -7.9438752e-05 
1.6909532e-02 1.6305894e-02 -2.3978425e-04 
1.6938267e-02 1.6267680e-02 -1.0796355e-04 
1.7201360e-02 1.6624063e-02 -2.1168268e-04 
1.7187810e-02 1.6633332e-02 -2.5799268e-04 
1.7058289e-02 1.6486619e-02 -2.6061357e-04 
1.7093528e-02 1.6459119e-02 -1.3389692e-04 
1.6926024e-02 1.6287057e-02 -1.6992276e-04 
1.6843824e-02 1.6194871e-02 -1.7275441e-04 
1.6931869e-02 1.6357327e-02 -2.8880985e-04 
1.6986564e-02 1.6313711e-02 -9.0635862e-05 
1.6807480e-02 1.6189283e-02 -2.3961029e-04 
1.6836153e-02 1.6151285e-02 -1.0783102e-04 
1.6823651e-02 1.6231516e-02 -2.8433010e-04 
1.7153958e-02 1.6615896e-02 -2.9791315e-04 
1.6879980e-02 1.6185494e-02 -7.8339013e-05 
1.6742505e-02 1.6079420e-02 -1.7247608e-04 
1.6915418e-02 1.6324291e-02 -2.6258786e-04 
1.6955111e-02 1.6299566e-02 -1.3101927e-04 
1.7040763e-02 1.6440956e-02 -2.1281360e-04 
1.7027339e-02 1.6450301e-02 -2.5921330e-04 
1.6790040e-02 1.6131967e-02 -1.6984492e-04 
1.6706293e-02 1.6073830e-02 -2.3935940e-04 
1.6793467e-02 1.6200267e-02 -2.9083219e-04 
1.6734820e-02 1.6035855e-02 -1.0760883e-04 
1.6851153e-02 1.6158514e-02 -8.8933033e-05 
1.6642058e-02 1.5964776e-02 -1.7210255e-04 
1.6687615e-02 1.6077112e-02 -2.8597371e-04 
1.6746301e-02 1.6032912e-02 -7.7239034e-05 
1.6992968e-02 1.6432161e-02 -2.9922527e-04 
1.6777053e-02 1.6167678e-02 -2.6501471e-04 
1.6820259e-02 1.6144276e-02 -1.2803893e-04 
1.6605698e-02 1.5959164e-02 -2.3922150e-04 
1.6634185e-02 1.5921397e-02 -1.0740775e-04 
1.6846852e-02 1.6242232e-02 -2.5579482e-04 
1.6867144e-02 1.6232030e-02 -1.9265732e-04 
1.6657572e-02 1.6046235e-02 -2.9278212e-04 
1.6717885e-02 1.6005928e-02 -8.7232023e-05 
1.6622551e-02 1.5941115e-02 -1.6936484e-04 
1.6542239e-02 1.5851179e-02 -1.7178556e-04 
1.6614748e-02 1.5882844e-02 -7.6070930e-05 
1.6553828e-02 1.5925420e-02 -2.8751086e-04 
1.6505940e-02 1.5845487e-02 -2.3898599e-04 
1.6534265e-02 1.5807923e-02 -1.0718875e-04 
1.6687512e-02 1.5991613e-02 -1.2510733e-04 
1.6641138e-02 1.6013965e-02 -2.6743679e-04 
1.6832182e-02 1.6249051e-02 -3.0050130e-04 
1.6443003e-02 1.5738456e-02 -1.7148093e-04 
1.6586637e-02 1.5855964e-02 -8.5551917e-05 
1.6523955e-02 1.5895056e-02 -2.9464209e-04 
1.6706795e-02 1.6085640e-02 -2.6179911e-04 
1.6697695e-02 1.6041033e-02 -1.9660238e-04 
1.6406739e-02 1.5732674e-02 -2.3868136e-04 
1.6431488e-02 1.5692014e-02 -1.0846591e-04 
1.6485279e-02 1.5735220e-02 -7.4794923e-05 
1.6422309e-02 1.5776699e-02 -2.8905310e-04 
1.6405312e-02 1.5697371e-02 -1.7499336e-04 
1.6344497e-02 1.5626412e-02 -1.7107837e-04 
1.6556656e-02 1.5841521e-02 -1.2238756e-04 
1.6510198e-02 1.5861474e-02 -2.6124023e-04 
1.6457304e-02 1.5708558e-02 -8.4035717e-05 
1.6392626e-02 1.5746510e-02 -2.9639853e-04 
1.6308220e-02 1.5620627e-02 -2.3832555e-04 
1.6671794e-02 1.6066784e-02 -3.0180204e-04 
1.6336326e-02 1.5583312e-02 -1.0665871e-04 
1.6354641e-02 1.5633471e-02 -1.6272666e-04 
1.6550794e-02 1.5874052e-02 -1.9684272e-04 
1.6246626e-02 1.5515383e-02 -1.7072268e-04 
1.6357454e-02 1.5590141e-02 -7.3794159e-05 
1.6292932e-02 1.5630344e-02 -2.9036379e-04 
1.6546758e-02 1.5903987e-02 -2.6288594e-04 
1.6427806e-02 1.5693979e-02 -1.1957777e-04 
1.6376175e-02 1.5714794e-02 -2.7189229e-04 
1.6210366e-02 1.5509548e-02 -2.3805829e-04 
1.6238408e-02 1.5472398e-02 -1.0642072e-04 
1.6329959e-02 1.5563567e-02 -8.2398547e-05 
1.6263463e-02 1.5600564e-02 -2.9797095e-04 
1.6219148e-02 1.5473688e-02 -1.5051082e-04 
1.6149363e-02 1.5405190e-02 -1.7038146e-04 
1.6511528e-02 1.5884956e-02 -3.0312239e-04 
1.6231662e-02 1.5447274e-02 -7.2573406e-05 
1.6165596e-02 1.5486625e-02 -2.9162210e-04 
1.6396988e-02 1.5691061e-02 -1.8113169e-04 
1.6362788e-02 1.5691523e-02 -2.5663129e-04 
1.6113129e-02 1.5399265e-02 -2.3769645e-04 
1.6300891e-02 1.5548809e-02 -1.1690926e-04 
1.6140467e-02 1.5357245e-02 -9.7646131e-05 
1.6247049e-02 1.5569345e-02 -2.7407761e-04 
1.6052624e-02 1.5295750e-02 -1.7002484e-04 
1.6204415e-02 1.5420820e-02 -8.0790145e-05 
1.6136317e-02 1.5457258e-02 -2.9943718e-04 
1.6044255e-02 1.5252991e-02 -1.0590597e-04 
1.6012980e-02 1.5282637e-02 -2.3100726e-04 
1.6107667e-02 1.5306699e-02 -7.1441900e-05 
1.6040254e-02 1.5345312e-02 -2.9281364e-04 
1.6351422e-02 1.5703443e-02 -3.0413008e-04 
1.6027652e-02 1.5276655e-02 -1.8769965e-04 
1.6175803e-02 1.5406062e-02 -1.1433448e-04 
1.6119830e-02 1.5426285e-02 -2.7617812e-04 
1.5956512e-02 1.5187277e-02 -1.6969950e-04 
1.6080558e-02 1.5280484e-02 -7.9324942e-05 
1.6227279e-02 1.5542018e-02 -2.6501378e-04 
1.6240025e-02 1.5532554e-02 -2.1860802e-04 
1.5970927e-02 1.5165675e-02 -9.6733624e-05 
1.6011113e-02 1.5316219e-02 -3.0077653e-04 
1.5931746e-02 1.5198066e-02 -2.4503318e-04 
1.6172230e-02 1.5423510e-02 -1.5601702e-04 
1.6127951e-02 1.5426053e-02 -2.5832237e-04 
1.5985206e-02 1.5168365e-02 -7.0408321e-05 
1.5917055e-02 1.5206348e-02 -2.9370291e-04 
1.5861114e-02 1.5079594e-02 -1.6926516e-04 
1.6052425e-02 1.5265538e-02 -1.1175256e-04 
1.5994767e-02 1.5285829e-02 -2.7810759e-04 
1.6191045e-02 1.5521711e-02 -3.0517147e-04 
1.5869057e-02 1.5049200e-02 -9.2896931e-05 
1.5826751e-02 1.5080194e-02 -2.4595379e-04 
1.5958510e-02 1.5142161e-02 -7.7820427e-05 
1.5887981e-02 1.5177681e-02 -3.0211854e-04 
1.5766297e-02 1.4972580e-02 -1.6885986e-04 
1.6067501e-02 1.5361497e-02 -2.6589073e-04 
1.6080052e-02 1.5352069e-02 -2.1957509e-04 
1.5864545e-02 1.5031984e-02 -6.9209163e-05 
1.5795648e-02 1.5069882e-02 -2.9465806e-04 
1.5930658e-02 1.5127110e-02 -1.0931400e-04 
1.5724363e-02 1.4963886e-02 -2.4399719e-04 
1.5851907e-02 1.5127864e-02 -2.8460010e-04 
1.5952310e-02 1.5173881e-02 -1.5300987e-04 
1.5748370e-02 1.4913237e-02 -9.2317481e-05 
1.5837986e-02 1.5006001e-02 -7.6397759e-05 
1.5766762e-02 1.5041344e-02 -3.0330225e-04 
1.5671877e-02 1.4866386e-02 -1.6843980e-04 
1.6031025e-02 1.5340720e-02 -3.0604063e-04 
1.5692836e-02 1.4897495e-02 -1.8362414e-04 
1.5745461e-02 1.4897844e-02 -6.8029622e-05 
1.5859907e-02 1.5123270e-02 -2.5844996e-04 
1.5636068e-02 1.4857701e-02 -2.3036057e-04 
1.5675955e-02 1.4935326e-02 -2.9554596e-04 
1.5663179e-02 1.4824116e-02 -1.0474366e-04 
1.5810564e-02 1.4990856e-02 -1.0688146e-04 
1.5907986e-02 1.5181625e-02 -2.6656152e-04 
1.5920402e-02 1.5172225e-02 -2.2028341e-04 
1.5750222e-02 1.5011560e-02 -2.8179155e-04 
1.5648689e-02 1.4797432e-02 -8.4049570e-05 
1.5578064e-02 1.4760994e-02 -1.6804585e-04 
1.5719149e-02 1.4871946e-02 -7.4861506e-05 
1.5647210e-02 1.4907211e-02 -3.0438215e-04 
1.5582318e-02 1.4734106e-02 -1.0590906e-04 
1.5542239e-02 1.4754473e-02 -2.3469179e-04 
1.5627908e-02 1.4765480e-02 -6.6915360e-05 
1.5558002e-02 1.4803160e-02 -2.9621521e-04 
1.5871089e-02 1.5160412e-02 -3.0687600e-04 
1.5691929e-02 1.4856604e-02 -1.0452510e-04 
1.5484836e-02 1.4656278e-02 -1.6762773e-04 
1.5611716e-02 1.4858733e-02 -2.8776887e-04 
1.5520042e-02 1.4655942e-02 -8.9191271e-05 
1.5717909e-02 1.4911958e-02 -1.5661372e-04 
1.5601718e-02 1.4739735e-02 -7.3429037e-05 
1.5547351e-02 1.4719524e-02 -1.5444736e-04 
1.5458588e-02 1.4666595e-02 -2.4665293e-04 
1.5748620e-02 1.5002263e-02 -2.6734534e-04 
1.5529438e-02 1.4775179e-02 -3.0540180e-04 
1.5760895e-02 1.4992908e-02 -2.2111915e-04 
1.5511765e-02 1.4635219e-02 -6.5909815e-05 
1.5619476e-02 1.4853106e-02 -2.5970151e-04 