# vtk DataFile Version 4.0
vtk output
ASCII
DATASET UNSTRUCTURED_GRID
POINTS 4496 float
-4.3633327e-01 9.6409470e-01 4.4200001e+01 
-4.3633258e-01 9.6409065e-01 4.4074627e+01 
-3.2152572e-01 9.1279918e-01 4.4200001e+01 
-3.8534868e-01 8.4052670e-01 4.4200001e+01 
-3.9589554e-01 8.5545403e-01 4.4010014e+01 
-3.2616228e-01 9.1667932e-01 4.4011734e+01 
-4.3633190e-01 9.6408653e-01 4.3948376e+01 
-2.1293370e-01 8.4677851e-01 4.4200001e+01 
-2.9042658e-01 7.3813015e-01 4.4200001e+01 
-2.1010752e-01 8.4669363e-01 4.4073502e+01 
-2.8908840e-01 7.3604190e-01 4.4072292e+01 
-3.9589015e-01 8.5505831e-01 4.3883316e+01 
-3.2487559e-01 9.1697580e-01 4.3885036e+01 
-2.0722924e-01 8.4660655e-01 4.3944645e+01 
-1.1981077e-01 7.7773046e-01 4.4200001e+01 
-2.8772619e-01 7.3391593e-01 4.3942276e+01 
-4.3633121e-01 9.6408242e-01 4.3821228e+01 
-1.9739023e-01 6.6468561e-01 4.4200001e+01 
-2.9444304e-01 7.8727525e-01 4.3879974e+01 
-8.7554991e-02 7.5255024e-01 4.4042213e+01 
-1.6445170e-01 6.4084798e-01 4.4041008e+01 
-3.2357255e-01 9.1726828e-01 4.3757431e+01 
-3.9587301e-01 8.5463828e-01 4.3755711e+01 
-2.0429766e-01 8.4651643e-01 4.3813354e+01 
-2.8633916e-01 7.3175091e-01 4.3809875e+01 
-2.6899619e-02 6.8901783e-01 4.4200001e+01 
-1.0567340e-01 7.7152997e-01 4.3875790e+01 
-4.3633053e-01 9.6407831e-01 4.3693161e+01 
-8.7133333e-02 5.9509218e-01 4.4200001e+01 
-1.8777622e-01 6.5475601e-01 4.3873402e+01 
-2.0131156e-01 8.4642249e-01 4.3679543e+01 
-3.2225290e-01 9.1755641e-01 4.3628902e+01 
-3.9584404e-01 8.5419410e-01 4.3627178e+01 
-1.0114321e-03 6.6670936e-01 4.3939713e+01 
-2.8492665e-01 7.2954547e-01 4.3675007e+01 
-1.0131179e-01 7.7015632e-01 4.3743176e+01 
-6.0682178e-02 5.7631296e-01 4.3938457e+01 
3.9444737e-02 6.2338209e-01 4.4053139e+01 
-1.8470748e-01 6.5131217e-01 4.3739727e+01 
-7.0938184e-03 5.4737431e-01 4.4052326e+01 
-4.3632981e-01 9.6407413e-01 4.3564159e+01 
7.6947339e-02 5.8804804e-01 4.4200001e+01 
-1.2721874e-02 6.8194175e-01 4.3817982e+01 
-7.7214435e-02 5.8474159e-01 4.3819649e+01 
4.0195532e-02 5.2425718e-01 4.4200001e+01 
-1.9826968e-01 8.4632379e-01 4.3543118e+01 
-9.6842363e-02 7.6872379e-01 4.3607994e+01 
-3.2091641e-01 9.1783977e-01 4.3499420e+01 
-3.9580306e-01 8.5372573e-01 4.3497700e+01 
-2.8348783e-01 7.2729832e-01 4.3537586e+01 
-1.8155001e-01 6.4778340e-01 4.3603539e+01 
1.5678726e-01 5.2239102e-01 4.4060219e+01 
1.0298219e-02 6.6009766e-01 4.3674484e+01 
1.3250886e-01 4.7546524e-01 4.4058990e+01 
-4.3632913e-01 9.6407002e-01 4.3434200e+01 
-5.0139543e-02 5.6696451e-01 4.3671154e+01 
1.3504514e-01 5.4209155e-01 4.3856747e+01 
1.0361936e-01 4.8715758e-01 4.3855240e+01 
2.0846681e-01 4.8028421e-01 4.4200001e+01 
1.9279444e-01 4.4799727e-01 4.4200001e+01 
-9.2261828e-02 7.6722860e-01 4.3470158e+01 
-1.4701239e-03 6.7547697e-01 4.3552124e+01 
-1.9517080e-01 8.4621930e-01 4.3403992e+01 
-3.1956279e-01 9.1811794e-01 4.3368977e+01 
-3.9574999e-01 8.5323322e-01 4.3367252e+01 
-1.7830023e-01 6.4416617e-01 4.3464752e+01 
-6.7131944e-02 5.7555372e-01 4.3547829e+01 
-2.8202194e-01 7.2500783e-01 4.3397518e+01 
-4.3632844e-01 9.6406585e-01 4.3303261e+01 
1.5138821e-01 5.3037512e-01 4.3609200e+01 
1.2119007e-01 4.7490793e-01 4.3606068e+01 
-8.7566733e-02 7.6566672e-01 4.3329563e+01 
-1.7495437e-01 6.4045686e-01 4.3323273e+01 
-3.1819177e-01 9.1839045e-01 4.3237537e+01 
-3.9568463e-01 8.5271639e-01 4.3235813e+01 
2.2269404e-02 6.5294570e-01 4.3398811e+01 
-1.9201367e-01 8.4610778e-01 4.3262066e+01 
-3.8899176e-02 5.5709696e-01 4.3393635e+01 
-2.8052819e-01 7.2267252e-01 4.3254715e+01 
3.7877345e-01 3.8273901e-01 4.4200001e+01 
-4.3632776e-01 9.6406174e-01 4.3171322e+01 
3.9241230e-01 3.7329337e-01 4.3965439e+01 
1.0283732e-02 6.6872352e-01 4.3271511e+01 
-5.6385640e-02 5.6585240e-01 4.3265472e+01 
-8.2753494e-02 7.6403379e-01 4.3186119e+01 
-4.0345609e-01 8.6371827e-01 4.3104889e+01 
-3.1680310e-01 9.1865683e-01 4.3105087e+01 
-1.7150842e-01 6.3665158e-01 4.3179005e+01 
-1.8879703e-01 8.4598809e-01 4.3117241e+01 
-2.7900568e-01 7.2029078e-01 4.3109074e+01 
4.0610775e-01 3.6380205e-01 4.3729839e+01 
1.6776134e-01 5.1882964e-01 4.3331150e+01 
-4.3632707e-01 9.6405768e-01 4.3038357e+01 
1.4031014e-01 4.6124566e-01 4.3307755e+01 
3.4952711e-02 6.4519531e-01 4.3111935e+01 
-7.7818394e-02 7.6232505e-01 4.3039719e+01 
-3.1539652e-01 9.1891652e-01 4.2971603e+01 
-3.9551663e-01 8.5160977e-01 4.2969879e+01 
-2.6899155e-02 5.4666573e-01 4.3105160e+01 
-1.6795819e-01 6.3274628e-01 4.3031849e+01 
-1.8551964e-01 8.4585863e-01 4.2969406e+01 
4.1985780e-01 3.5425979e-01 4.3493168e+01 
-2.7745360e-01 7.1786088e-01 4.2960495e+01 
-4.3632638e-01 9.6405357e-01 4.2904346e+01 
2.2723136e-02 6.6139150e-01 4.2979332e+01 
-4.4916678e-02 5.5559248e-01 4.2971806e+01 
-3.1397179e-01 9.1916907e-01 4.2837063e+01 
-3.9541367e-01 8.5101974e-01 4.2835335e+01 
-7.2757579e-02 7.6053542e-01 4.2890255e+01 
-1.6429928e-01 6.2873662e-01 4.2881699e+01 
1.8463810e-01 5.0694346e-01 4.3035332e+01 
-1.8218029e-01 8.4571803e-01 4.2818455e+01 
1.5503895e-01 4.5003417e-01 4.3027725e+01 
-2.7587104e-01 7.1538109e-01 4.2808868e+01 
4.3366045e-01 3.4466109e-01 4.3255390e+01 
-4.3632573e-01 9.6404958e-01 4.2769268e+01 
-3.8429454e-01 8.3484912e-01 4.2710606e+01 
-3.1252861e-01 9.1941386e-01 4.2701439e+01 
4.8404284e-02 6.3678014e-01 4.2813030e+01 
-1.4070326e-02 5.3562075e-01 4.2804932e+01 
-6.7567028e-02 7.5865942e-01 4.2737610e+01 
-1.6052702e-01 6.2461799e-01 4.2728443e+01 
-1.7877772e-01 8.4556442e-01 4.2664265e+01 
-4.3632504e-01 9.6404558e-01 4.2633099e+01 
-2.7425703e-01 7.1284944e-01 4.2654083e+01 
4.4751364e-01 3.3500037e-01 4.3016472e+01 
3.5901129e-02 6.5341437e-01 4.2674721e+01 
-3.7959340e-01 8.2794034e-01 4.2568317e+01 
-3.1106678e-01 9.1965032e-01 4.2564713e+01 
-3.2659348e-02 5.4472327e-01 4.2665997e+01 
2.0396979e-01 4.9291667e-01 4.2740131e+01 
-6.2242586e-02 7.5669110e-01 4.2581669e+01 
1.7765003e-01 4.3475360e-01 4.2732578e+01 
-1.5663649e-01 6.2038553e-01 4.2571964e+01 
-4.3632439e-01 9.6404165e-01 4.2495808e+01 
-1.7531081e-01 8.4539592e-01 4.2506718e+01 
-2.7261066e-01 7.1026409e-01 4.2496017e+01 
-3.0958602e-01 9.1987789e-01 4.2426853e+01 
-3.7859210e-01 8.2613736e-01 4.2421188e+01 
4.6141517e-01 3.2527190e-01 4.2776375e+01 
6.2686495e-02 6.2762415e-01 4.2501175e+01 
-3.3570320e-04 5.2390522e-01 4.2492062e+01 
-5.6779940e-02 7.5462401e-01 4.2422298e+01 
-4.3632373e-01 9.6403772e-01 4.2357380e+01 
-1.5262254e-01 6.1603409e-01 4.2412144e+01 
-1.7177837e-01 8.4521037e-01 4.2345684e+01 
-2.7093092e-01 7.0762289e-01 4.2334549e+01 
-3.0808610e-01 9.2009580e-01 4.2287842e+01 
-3.8275370e-01 8.3137155e-01 4.2275047e+01 
4.9876589e-02 6.4471585e-01 4.2356720e+01 
-1.9539909e-02 5.3318781e-01 4.2347118e+01 
-4.3632311e-01 9.6403396e-01 4.2217781e+01 
2.1959943e-01 4.8236796e-01 4.2385345e+01 
-5.1174615e-02 7.5245124e-01 4.2259373e+01 
1.9034323e-01 4.2346162e-01 4.2378918e+01 
-1.4847966e-01 6.1155808e-01 4.2248856e+01 
4.7536272e-01 3.1546980e-01 4.2535065e+01 
-1.6817927e-01 8.4500539e-01 4.2181026e+01 
-2.6921678e-01 7.0492369e-01 4.2169544e+01 
-3.0656675e-01 9.2030340e-01 4.2147648e+01 
-3.9470181e-01 8.4769493e-01 4.2145920e+01 
7.7868804e-02 6.1763972e-01 4.2175373e+01 
-4.3632248e-01 9.6403021e-01 4.2076988e+01 
1.4390758e-02 5.1145434e-01 4.2165581e+01 
-4.5421973e-02 7.5016522e-01 4.2092751e+01 
-1.4420210e-01 6.0695171e-01 4.2081959e+01 
-3.0502778e-01 9.2049998e-01 4.2006248e+01 
-4.0175444e-01 8.5747409e-01 4.2004128e+01 
-1.6451253e-01 8.4477836e-01 4.2012604e+01 
4.8935395e-01 3.0558801e-01 4.2292507e+01 
-2.6746723e-01 7.0216429e-01 4.2000870e+01 
6.4714879e-02 6.3520777e-01 4.2024277e+01 
-4.3632188e-01 9.6402657e-01 4.1934975e+01 
-5.4755262e-03 5.2092212e-01 4.2014156e+01 
-2.3078828e-01 8.1064087e-01 4.1931458e+01 
2.3550548e-01 4.7116494e-01 4.2073269e+01 
2.0610523e-01 4.1123796e-01 4.2066772e+01 
-3.9517213e-02 7.4775779e-01 4.1922287e+01 
-1.3978374e-01 6.0220873e-01 4.1911320e+01 
-3.0346894e-01 9.2068475e-01 4.1863613e+01 
-3.9432141e-01 8.4618556e-01 4.1861881e+01 
-1.6077711e-01 8.4452641e-01 4.1840263e+01 
-2.6568118e-01 6.9934219e-01 4.1828377e+01 
-4.3632129e-01 9.6402299e-01 4.1791718e+01 
5.0338638e-01 2.9562023e-01 4.2048656e+01 
9.4028555e-02 6.0672593e-01 4.1834507e+01 
3.0205652e-02 4.9819478e-01 4.1824417e+01 
-3.8116732e-01 8.2744831e-01 4.1725647e+01 
-3.0189002e-01 9.2085695e-01 4.1719719e+01 
-3.3455357e-02 7.4522001e-01 4.1747829e+01 
-1.3521814e-01 5.9732240e-01 4.1736786e+01 
-4.3632072e-01 9.6401960e-01 4.1647179e+01 
-1.5697217e-01 8.4424627e-01 4.1663853e+01 
-2.6385748e-01 6.9645494e-01 4.1651920e+01 
8.0488607e-02 6.2478805e-01 4.1676235e+01 
2.6870471e-01 4.4547972e-01 4.1752304e+01 
9.6269641e-03 5.0785345e-01 4.1665993e+01 
2.4764967e-01 3.8646612e-01 4.1743168e+01 
-3.0029076e-01 9.2101562e-01 4.1574532e+01 
-3.9388368e-01 8.4456980e-01 4.1572796e+01 
5.1745731e-01 2.8556010e-01 4.1803486e+01 
-2.7231261e-02 7.4254233e-01 4.1569210e+01 
-1.3049847e-01 5.9228569e-01 4.1558201e+01 
-4.3632016e-01 9.6401632e-01 4.1501339e+01 
-1.5309690e-01 8.4393430e-01 4.1483204e+01 
-2.6199502e-01 6.9349992e-01 4.1471333e+01 
-2.9867104e-01 9.2115986e-01 4.1428024e+01 
-3.9364263e-01 8.4372103e-01 4.1426289e+01 
1.1125199e-01 5.9476525e-01 4.1477348e+01 
4.7217656e-02 4.8404291e-01 4.1467384e+01 
-4.3631962e-01 9.6401310e-01 4.1354160e+01 
-2.0839609e-02 7.3971421e-01 4.1386261e+01 
-1.2561750e-01 5.8709091e-01 4.1375404e+01 
5.3156406e-01 2.7540097e-01 4.1556946e+01 
-1.4915068e-01 8.4358656e-01 4.1298138e+01 
-2.9703063e-01 9.2128879e-01 4.1280167e+01 
-3.9338648e-01 8.4284443e-01 4.1278431e+01 
-2.6009262e-01 6.9047421e-01 4.1286449e+01 
2.9365057e-01 4.2687622e-01 4.1391586e+01 
9.7278498e-02 6.1333776e-01 4.1311302e+01 
2.7470219e-01 3.6807936e-01 4.1382729e+01 
2.5872495e-02 4.9389899e-01 4.1301384e+01 
-4.3631911e-01 9.6401012e-01 4.1205620e+01 
-1.4274905e-02 7.3672432e-01 4.1198803e+01 
-1.2056758e-01 5.8173001e-01 4.1188221e+01 
-2.9536936e-01 9.2140132e-01 4.1130928e+01 
[...]
POINT_DATA 4496
FIELD FieldData 5
DISPLACEMENT 3 4496  float
2.9836920e-05 3.6674195e-05 -6.7286874e-07 
2.9546432e-05 3.6276298e-05 -6.7282343e-07 
3.0681338e-05 3.8564285e-05 -7.7628840e-07 
3.1871165e-05 3.7513539e-05 -3.9886297e-07 
3.1184984e-05 3.6737059e-05 -4.2187961e-07 
3.0181140e-05 3.7890310e-05 -7.7777645e-07 
2.9254337e-05 3.5876354e-05 -6.7272543e-07 
3.1768417e-05 4.0352581e-05 -8.1877141e-07 
3.3557299e-05 3.9076527e-05 -2.9379183e-07 
3.1476266e-05 3.9997212e-05 -8.2501879e-07 
3.3295219e-05 3.8692855e-05 -2.9022442e-07 
3.0898133e-05 3.6335765e-05 -4.2060628e-07 
2.9883120e-05 3.7509788e-05 -7.8171507e-07 
3.1178977e-05 3.9634964e-05 -8.3127173e-07 
3.2905493e-05 4.1886342e-05 -8.1591014e-07 
3.3028282e-05 3.8302744e-05 -2.8683519e-07 
2.8960732e-05 3.5474281e-05 -6.7258696e-07 
3.4767003e-05 4.0608891e-05 -2.7637790e-07 
3.2005693e-05 3.7994538e-05 -4.4071481e-07 
3.2953652e-05 4.1915791e-05 -8.1088086e-07 
3.4789911e-05 4.0645602e-05 -2.7708384e-07 
2.9583958e-05 3.7127313e-05 -7.8498385e-07 
3.0609863e-05 3.5932731e-05 -4.1964131e-07 
3.0876512e-05 3.9266288e-05 -8.3760364e-07 
3.2756547e-05 3.7905796e-05 -2.8336336e-07 
3.4366698e-05 4.3417247e-05 -7.5009780e-07 
3.2255019e-05 4.1087704e-05 -8.2879222e-07 
2.8666762e-05 3.5070276e-05 -6.7223851e-07 
3.5913858e-05 4.2425312e-05 -3.1088788e-07 
3.4170916e-05 3.9728882e-05 -2.6728964e-07 
3.0569132e-05 3.8891030e-05 -8.4383515e-07 
2.9283648e-05 3.6742862e-05 -7.8863377e-07 
3.0320902e-05 3.5528399e-05 -4.1906512e-07 
3.4128785e-05 4.3014174e-05 -7.3947950e-07 
3.2479758e-05 3.7502206e-05 -2.8006676e-07 
3.1970278e-05 4.0737526e-05 -8.3427460e-07 
3.5613830e-05 4.2027827e-05 -3.1244190e-07 
3.5106132e-05 4.4042587e-05 -6.9577044e-07 
3.3916229e-05 3.9354931e-05 -2.6376597e-07 
3.6356265e-05 4.3273489e-05 -3.4473564e-07 
2.8370989e-05 3.4665663e-05 -6.7206622e-07 
3.6030546e-05 4.5129538e-05 -6.7046773e-07 
3.3594883e-05 4.2433025e-05 -7.6066272e-07 
3.5197878e-05 4.1377283e-05 -3.0091411e-07 
3.7081940e-05 4.4524000e-05 -3.8100501e-07 
3.0256344e-05 3.8508697e-05 -8.5000028e-07 
3.1680956e-05 4.0381092e-05 -8.3964085e-07 
2.8982331e-05 3.6357236e-05 -7.9182746e-07 
3.0030835e-05 3.5122317e-05 -4.1765190e-07 
3.2198706e-05 3.7092082e-05 -2.7686147e-07 
3.3657492e-05 3.8974864e-05 -2.6015900e-07 
3.6786481e-05 4.5998990e-05 -6.4729937e-07 
3.3620283e-05 4.2353608e-05 -7.4474451e-07 
3.7556754e-05 4.5594999e-05 -4.4021459e-07 
2.8074845e-05 3.4258268e-05 -6.7156537e-07 
3.5143428e-05 4.1349474e-05 -3.0739963e-07 
3.5986512e-05 4.4989018e-05 -6.5968482e-07 
3.6887021e-05 4.4466993e-05 -4.0997051e-07 
3.7807509e-05 4.7299061e-05 -6.3336614e-07 
3.8339742e-05 4.7040743e-05 -4.9290162e-07 
3.1387273e-05 4.0018334e-05 -8.4519183e-07 
3.3083514e-05 4.1770072e-05 -7.6579420e-07 
2.9938721e-05 3.8120193e-05 -8.5627426e-07 
2.8679595e-05 3.5969544e-05 -7.9548329e-07 
2.9739997e-05 3.4715067e-05 -4.1699676e-07 
3.3394423e-05 3.8589114e-05 -2.5703849e-07 
3.4714227e-05 4.0677955e-05 -2.9594892e-07 
3.1912299e-05 3.6675036e-05 -2.7395666e-07 
2.7777256e-05 3.3850130e-05 -6.7148534e-07 
3.5600198e-05 4.4463344e-05 -6.6044964e-07 
3.6503898e-05 4.3957363e-05 -4.1153896e-07 
3.1089174e-05 3.9649760e-05 -8.5011055e-07 
3.3126740e-05 3.8196929e-05 -2.5363764e-07 
2.8376675e-05 3.5581284e-05 -7.9853237e-07 
2.9448911e-05 3.4306671e-05 -4.1661667e-07 
3.3097560e-05 4.1670857e-05 -7.4917256e-07 
2.9616036e-05 3.7724458e-05 -8.6216642e-07 
3.4657569e-05 4.0650826e-05 -3.0268200e-07 
3.1621192e-05 3.6251313e-05 -2.7110221e-07 
3.9416082e-05 5.0107610e-05 -7.1885898e-07 
2.7478869e-05 3.3440199e-05 -6.7157140e-07 
3.9020917e-05 4.9576520e-05 -7.2037375e-07 
3.2544427e-05 4.1069223e-05 -7.7060957e-07 
3.4215129e-05 3.9957751e-05 -2.9101770e-07 
3.0787010e-05 3.9274673e-05 -8.5518582e-07 
2.8970258e-05 3.3772423e-05 -4.3454438e-07 
2.8071525e-05 3.5190245e-05 -8.0218666e-07 
3.2855554e-05 3.7799498e-05 -2.5070614e-07 
2.9288665e-05 3.7322807e-05 -8.6803038e-07 
3.1326505e-05 3.5821762e-05 -2.6786253e-07 
3.8621820e-05 4.9040245e-05 -7.2163652e-07 
3.5138884e-05 4.3839704e-05 -6.6148755e-07 
2.7179289e-05 3.3029988e-05 -6.7172579e-07 
3.6027330e-05 4.3315045e-05 -4.1245409e-07 
3.2560980e-05 4.0965402e-05 -7.5285629e-07 
3.0480678e-05 3.8893781e-05 -8.5972493e-07 
2.7767963e-05 3.4799388e-05 -8.0473279e-07 
2.8863238e-05 3.3485216e-05 -4.1522154e-07 
3.4156292e-05 3.9932074e-05 -2.9822112e-07 
3.2579388e-05 3.7395592e-05 -2.4748670e-07 
2.8956320e-05 3.6913698e-05 -8.7343426e-07 
3.8218976e-05 4.8495604e-05 -7.2265607e-07 
3.1025986e-05 3.5384881e-05 -2.6544191e-07 
2.6881284e-05 3.2617285e-05 -6.7115769e-07 
3.1991571e-05 4.0345327e-05 -7.7454052e-07 
3.3700700e-05 3.9217299e-05 -2.8672673e-07 
2.7463120e-05 3.4407076e-05 -8.0847849e-07 
2.8570852e-05 3.3073946e-05 -4.1532599e-07 
3.0170266e-05 3.8506310e-05 -8.6435614e-07 
3.2300060e-05 3.6986832e-05 -2.4515586e-07 
3.4642755e-05 4.3166809e-05 -6.6239954e-07 
2.8618904e-05 3.6497437e-05 -8.7856040e-07 
3.5554029e-05 4.2659336e-05 -4.1103030e-07 
3.0722294e-05 3.4943034e-05 -2.6378149e-07 
3.7813701e-05 4.7947888e-05 -7.2505247e-07 
2.6581032e-05 3.2206459e-05 -6.7090741e-07 
2.8554858e-05 3.2874821e-05 -3.9079654e-07 
2.7158694e-05 3.4015611e-05 -8.1045914e-07 
3.2011572e-05 4.0238305e-05 -7.5568227e-07 
3.3640245e-05 3.9194787e-05 -2.9484227e-07 
2.9855208e-05 3.8113507e-05 -8.6858421e-07 
3.2015796e-05 3.6572183e-05 -2.4223550e-07 
2.8278055e-05 3.6076803e-05 -8.8334906e-07 
2.6281936e-05 3.1794429e-05 -6.7024354e-07 
3.0413390e-05 3.4492699e-05 -2.6175871e-07 
3.7404872e-05 4.7393652e-05 -7.2564916e-07 
3.1425981e-05 3.9600094e-05 -7.7753475e-07 
2.8351822e-05 3.2519900e-05 -3.8036106e-07 
2.6854666e-05 3.3622713e-05 -8.1141275e-07 
3.3171607e-05 3.8458536e-05 -2.8348489e-07 
3.4184530e-05 4.2537689e-05 -6.6181741e-07 
2.9538378e-05 3.7715108e-05 -8.7324179e-07 
3.5112036e-05 4.2085921e-05 -4.1530473e-07 
3.1729007e-05 3.6152731e-05 -2.4202851e-07 
2.5984213e-05 3.1381485e-05 -6.6850453e-07 
2.7931961e-05 3.5649715e-05 -8.8881052e-07 
3.0100255e-05 3.4038705e-05 -2.6052896e-07 
2.6549718e-05 3.3230426e-05 -8.1413208e-07 
2.8057069e-05 3.2095704e-05 -3.7935862e-07 
3.6997197e-05 4.6840563e-05 -7.2532180e-07 
3.1451389e-05 3.9491275e-05 -7.5678543e-07 
3.3111362e-05 3.8440859e-05 -2.9189394e-07 
2.9217545e-05 3.7311867e-05 -8.7550922e-07 
2.5685573e-05 3.0971045e-05 -6.6809469e-07 
3.1437896e-05 3.5728128e-05 -2.4052449e-07 
2.7582579e-05 3.5216781e-05 -8.9267212e-07 
2.9783605e-05 3.3579476e-05 -2.5952053e-07 
2.6246988e-05 3.2839453e-05 -8.1593055e-07 
2.7654160e-05 3.1595475e-05 -3.8866443e-07 
3.0850606e-05 3.8834358e-05 -7.7858454e-07 
3.2632113e-05 3.7683822e-05 -2.8058975e-07 
2.5388812e-05 3.0562140e-05 -6.6742240e-07 
3.3539076e-05 4.1667252e-05 -6.6290954e-07 
2.8894228e-05 3.6904326e-05 -8.7747327e-07 
3.4476354e-05 4.1174357e-05 -4.1095839e-07 
3.1144209e-05 3.5300756e-05 -2.3970244e-07 
3.6588426e-05 4.6283982e-05 -7.2418851e-07 
2.7229749e-05 3.4778714e-05 -8.9629771e-07 
2.9462897e-05 3.3115033e-05 -2.5893709e-07 
2.5946798e-05 3.2451131e-05 -8.1687739e-07 
2.7114578e-05 3.1025553e-05 -4.1396967e-07 
3.0884439e-05 3.8729107e-05 -7.5645193e-07 
2.5093064e-05 3.0153147e-05 -6.6720406e-07 
3.2573698e-05 3.7675585e-05 -2.9181348e-07 
2.8568857e-05 3.6492806e-05 -8.7921813e-07 
3.0849991e-05 3.4869627e-05 -2.3841490e-07 
2.5643682e-05 3.2059997e-05 -8.2004482e-07 
2.6653264e-05 3.0498899e-05 -4.3008626e-07 
2.6873762e-05 3.4336015e-05 -8.9955023e-07 
3.6180962e-05 4.5725879e-05 -7.2301833e-07 
2.9142191e-05 3.2648441e-05 -2.5762091e-07 
3.0270468e-05 3.8057056e-05 -7.7782153e-07 
2.4793877e-05 2.9743649e-05 -6.6754126e-07 
3.2084834e-05 3.6899815e-05 -2.8039503e-07 
2.7251242e-05 3.3033968e-05 -6.5525046e-07 
3.3014298e-05 4.0951167e-05 -6.6225022e-07 
3.3962704e-05 4.0458854e-05 -4.1132421e-07 
2.8242241e-05 3.6079120e-05 -8.8115473e-07 
3.0553238e-05 3.4436620e-05 -2.3742629e-07 
2.5340667e-05 3.1668649e-05 -8.2141042e-07 
2.6531916e-05 3.0206013e-05 -4.1494494e-07 
2.6514599e-05 3.3891465e-05 -9.0316718e-07 
2.8819381e-05 3.2175318e-05 -2.5715238e-07 
2.4497682e-05 2.9333898e-05 -6.6634152e-07 
3.5778608e-05 4.5174136e-05 -7.2214806e-07 
3.0314499e-05 3.7956313e-05 -7.5484337e-07 
3.2030239e-05 3.6903170e-05 -2.9290288e-07 
2.6550189e-05 3.0028701e-05 -3.8797700e-07 
2.5042902e-05 3.1282107e-05 -8.2120084e-07 
2.7912816e-05 3.5659759e-05 -8.8267609e-07 
3.0253848e-05 3.3998505e-05 -2.3634057e-07 
2.4205328e-05 2.8925728e-05 -6.6413412e-07 
2.6153568e-05 3.3439919e-05 -9.0642567e-07 
2.8490485e-05 3.1697480e-05 -2.5797451e-07 
2.9686955e-05 3.7268997e-05 -7.7514528e-07 
3.2713295e-05 4.0499846e-05 -6.5483380e-07 
3.1530224e-05 3.6107493e-05 -2.8194333e-07 
3.3635057e-05 4.0135437e-05 -4.3011607e-07 
2.4744599e-05 3.0895790e-05 -8.2309987e-07 
2.5962487e-05 2.9397595e-05 -4.1436175e-07 
3.5386172e-05 4.4634791e-05 -7.2000370e-07 
2.7582588e-05 3.5236768e-05 -8.8394432e-07 
2.9953912e-05 3.3559492e-05 -2.3807146e-07 
2.3914281e-05 2.8523171e-05 -6.6318665e-07 
2.5789674e-05 3.2984914e-05 -9.0744265e-07 
2.8160637e-05 3.1218304e-05 -2.6026180e-07 
2.4450914e-05 3.0512747e-05 -8.2305547e-07 
2.5679745e-05 2.8998664e-05 -4.1678825e-07 
2.9743709e-05 3.7173751e-05 -7.5058495e-07 
3.1483294e-05 3.6126996e-05 -2.9377892e-07 
2.3623523e-05 2.8124983e-05 -6.6313743e-07 
2.7251697e-05 3.4812463e-05 -8.8312947e-07 
2.9652683e-05 3.3118202e-05 -2.3794541e-07 
3.4996341e-05 4.4095108e-05 -7.1539898e-07 
2.5424633e-05 3.2528646e-05 -9.0740525e-07 
2.4158137e-05 3.0134504e-05 -8.2239580e-07 
2.5398265e-05 2.8600547e-05 -4.1613572e-07 
2.7830889e-05 3.0735839e-05 -2.5986145e-07 
3.2227181e-05 3.9816336e-05 -6.4957209e-07 
2.9104966e-05 3.6470701e-05 -7.7160411e-07 
3.3140259e-05 3.9490133e-05 -4.3584859e-07 
3.0976684e-05 3.5312638e-05 -2.8262198e-07 
2.3337834e-05 2.7723798e-05 -6.6207809e-07 
2.6922375e-05 3.4386976e-05 -8.8364988e-07 
2.9349367e-05 3.2675001e-05 -2.3854520e-07 
2.3867899e-05 2.9754190e-05 -8.2371150e-07 
2.5121770e-05 2.8205135e-05 -4.1834338e-07 
2.5060188e-05 3.2067761e-05 -9.1024089e-07 
2.7499023e-05 3.0253166e-05 -2.6230205e-07 
3.4614171e-05 4.3563308e-05 -7.1193307e-07 
2.3051716e-05 2.7330476e-05 -6.6182866e-07 
2.9177860e-05 3.6386202e-05 -7.4513127e-07 
3.0935236e-05 3.5346729e-05 -2.9778070e-07 
2.3579900e-05 2.9379484e-05 -8.2478209e-07 
2.4845749e-05 2.7813041e-05 -4.1860790e-07 
2.6591366e-05 3.3955883e-05 -8.8230894e-07 
2.9048775e-05 3.2232849e-05 -2.4076994e-07 
2.2771750e-05 2.6935766e-05 -6.6074375e-07 
2.4695206e-05 3.1606156e-05 -9.0826802e-07 
2.7165155e-05 2.9766417e-05 -2.6340243e-07 
3.1749616e-05 3.9136012e-05 -6.4449699e-07 
3.2650601e-05 3.8850241e-05 -4.4074204e-07 
2.8897361e-05 3.5989928e-05 -7.3898224e-07 
3.4244673e-05 4.3044936e-05 -7.0809966e-07 
2.3297962e-05 2.9006973e-05 -8.2357695e-07 
2.4575096e-05 2.7426468e-05 -4.2276517e-07 
3.0661049e-05 3.4960838e-05 -2.9806640e-07 
2.6264623e-05 3.3528329e-05 -8.7979021e-07 
2.8746659e-05 3.1788437e-05 -2.4346070e-07 
2.2491842e-05 2.6550950e-05 -6.6037489e-07 
2.4327644e-05 3.1140848e-05 -9.0788626e-07 
2.6836897e-05 2.9281035e-05 -2.6694337e-07 
2.3018092e-05 2.8643981e-05 -8.2148637e-07 
2.4305748e-05 2.7043243e-05 -4.2276201e-07 
2.8621522e-05 3.5595629e-05 -7.3457051e-07 
2.5793292e-05 2.9584087e-05 -4.7939670e-07 
3.0391977e-05 3.4577406e-05 -3.0273952e-07 
2.2217419e-05 2.6164482e-05 -6.5810565e-07 
3.3877262e-05 4.2522719e-05 -7.0264696e-07 
3.1136980e-05 3.8300830e-05 -6.4290759e-07 
2.5939553e-05 3.3099997e-05 -8.7342255e-07 
3.2035976e-05 3.7859645e-05 -4.2538170e-07 
2.8449051e-05 3.1351308e-05 -2.4621016e-07 
2.2739931e-05 2.8277786e-05 -8.1751017e-07 
2.4039537e-05 2.6663094e-05 -4.2445492e-07 
2.3970601e-05 3.0683132e-05 -9.0212444e-07 
2.6505733e-05 2.8800172e-05 -2.7425955e-07 
2.1945869e-05 2.5788715e-05 -6.5785332e-07 
2.8351455e-05 3.5206478e-05 -7.3191097e-07 
3.0125195e-05 3.4197448e-05 -3.0483832e-07 
2.5620113e-05 3.2676093e-05 -8.7081753e-07 
2.2470665e-05 2.7921216e-05 -8.1543362e-07 
2.3782004e-05 2.6291638e-05 -4.2646380e-07 
2.8151993e-05 3.0914751e-05 -2.4739631e-07 
3.3516564e-05 4.2017986e-05 -7.0091488e-07 
2.3609797e-05 3.0223544e-05 -9.0166913e-07 
2.1680580e-05 2.5416699e-05 -6.5639279e-07 
3.2129599e-05 3.8323862e-05 -4.7422677e-07 
3.1534561e-05 3.8749313e-05 -6.3119938e-07 
2.6178579e-05 2.8319520e-05 -2.7582348e-07 
2.8086168e-05 3.4821744e-05 -7.2505293e-07 
2.9860737e-05 3.3820808e-05 -3.0971154e-07 
2.2203734e-05 2.7568849e-05 -8.1444182e-07 
2.3525972e-05 2.5924868e-05 -4.2866390e-07 
2.5303068e-05 3.2252145e-05 -8.6759024e-07 
2.7861177e-05 3.0481377e-05 -2.5116458e-07 
2.1416878e-05 2.5048488e-05 -6.5458744e-07 
3.3171225e-05 4.1520048e-05 -6.9184682e-07 
2.3250155e-05 2.9763054e-05 -9.0068812e-07 
2.5854160e-05 2.7839054e-05 -2.7840017e-07 
2.1936994e-05 2.7219487e-05 -8.1324600e-07 
2.3268936e-05 2.5560092e-05 -4.3094417e-07 
3.1797026e-05 3.7845151e-05 -4.7354118e-07 
3.1204050e-05 3.8275615e-05 -6.2689043e-07 
2.7801319e-05 3.4414908e-05 -7.1772291e-07 
2.9571605e-05 3.3400727e-05 -3.1312103e-07 
2.4151903e-05 2.8041288e-05 -5.6512908e-07 
2.1159507e-05 2.4684621e-05 -6.5236867e-07 
2.4955836e-05 3.1799700e-05 -8.6398904e-07 
2.7529873e-05 2.9988269e-05 -2.5799375e-07 
2.1667211e-05 2.6841293e-05 -8.0699897e-07 
2.2996439e-05 2.5189845e-05 -4.3790243e-07 
2.2905655e-05 2.9314675e-05 -8.9228041e-07 
3.2840871e-05 4.1040781e-05 -6.8203252e-07 
2.5538751e-05 2.7378144e-05 -2.8617626e-07 
2.0909954e-05 2.4340949e-05 -6.5279414e-07 
2.7392700e-05 3.3892447e-05 -7.1821870e-07 
2.9203607e-05 3.2823136e-05 -3.1105594e-07 
3.1486878e-05 3.7399575e-05 -4.7079220e-07 
3.0897419e-05 3.7831152e-05 -6.1959361e-07 
2.3778783e-05 2.7532165e-05 -5.6756710e-07 
2.1410919e-05 2.6482337e-05 -7.9945659e-07 
2.4571787e-05 3.1311993e-05 -8.5911626e-07 
2.2733268e-05 2.4831088e-05 -4.4152426e-07 
2.7193340e-05 2.9484503e-05 -2.6266014e-07 
2.0674410e-05 2.4002453e-05 -6.4954151e-07 
2.2583848e-05 2.8892669e-05 -8.8611898e-07 
2.5241256e-05 2.6943610e-05 -2.9318014e-07 
3.2523447e-05 4.0573457e-05 -6.7302614e-07 
2.6960317e-05 3.3363045e-05 -7.2364185e-07 
2.8848461e-05 3.2261472e-05 -3.1118373e-07 
2.1157863e-05 2.6128673e-05 -7.9760446e-07 
2.2478080e-05 2.4485156e-05 -4.4651503e-07 
2.9774579e-05 3.6348356e-05 -6.2422004e-07 
3.0661860e-05 3.5866709e-05 -4.2654739e-07 
2.4210112e-05 3.0851115e-05 -8.5587271e-07 
2.6873548e-05 2.9000932e-05 -2.6564823e-07 
2.3365032e-05 2.6952630e-05 -5.6603039e-07 
2.0444570e-05 2.3679659e-05 -6.4956748e-07 
2.4960333e-05 2.6526151e-05 -2.9695278e-07 
2.2274733e-05 2.8485783e-05 -8.7959870e-07 
2.0919573e-05 2.5787836e-05 -7.9396540e-07 
2.2232081e-05 2.4151874e-05 -4.5068910e-07 
2.8508170e-05 3.1722728e-05 -3.0923738e-07 
2.6548880e-05 3.2857886e-05 -7.2934949e-07 
3.2221924e-05 4.0131868e-05 -6.6772634e-07 
2.0218064e-05 2.3365110e-05 -6.5002035e-07 
2.6567279e-05 2.8540815e-05 -2.6801322e-07 
2.3863904e-05 3.0412915e-05 -8.5365559e-07 
3.0333509e-05 3.7006434e-05 -6.1498014e-07 
3.0429293e-05 3.5574412e-05 -4.3846049e-07 
2.0683607e-05 2.5455234e-05 -7.8799962e-07 
2.1907217e-05 2.3759287e-05 -4.5767507e-07 
2.4697256e-05 2.6125846e-05 -2.9660018e-07 
2.1982705e-05 2.8107916e-05 -8.7820331e-07 
2.2487238e-05 2.5969781e-05 -5.9024927e-07 
2.0001469e-05 2.3052007e-05 -6.4587607e-07 
2.8179422e-05 3.1206757e-05 -3.1272836e-07 
2.7056816e-05 3.3178367e-05 -6.8689593e-07 
2.6273916e-05 2.8103690e-05 -2.7698741e-07 
2.3538416e-05 2.9991557e-05 -8.5070513e-07 
2.0455569e-05 2.5128897e-05 -7.8153255e-07 
3.1945365e-05 3.9721086e-05 -6.6281405e-07 
2.1758098e-05 2.3501563e-05 -4.5619174e-07 
2.3437298e-05 2.6716150e-05 -5.3407905e-07 
3.0169223e-05 3.5182824e-05 -4.3331795e-07 
1.9792096e-05 2.2756029e-05 -6.4490609e-07 
2.4436787e-05 2.5749820e-05 -3.0828633e-07 
2.1705942e-05 2.7737047e-05 -8.6965912e-07 
3.0071053e-05 3.6615442e-05 -6.0752996e-07 
2.7867964e-05 3.0715117e-05 -3.0965884e-07 
2.5785772e-05 3.1911844e-05 -7.2744706e-07 
2.0237332e-05 2.4817207e-05 -7.7964262e-07 
2.1536855e-05 2.3196299e-05 -4.6074089e-07 
2.5998710e-05 2.7687442e-05 -2.7932205e-07 
2.3230015e-05 2.9589413e-05 -8.4406878e-07 
2.2441580e-05 2.5235815e-05 -5.2882802e-07 
1.9590028e-05 2.2469256e-05 -6.4507549e-07 
3.1680451e-05 3.9325052e-05 -6.6153115e-07 
2.4197505e-05 2.5387129e-05 -3.0994164e-07 
2.1442758e-05 2.7388458e-05 -8.6405930e-07 
2.9544377e-05 3.4003937e-05 -4.0392626e-07 
2.8330487e-05 3.4384233e-05 -6.2433094e-07 
2.0026371e-05 2.4513321e-05 -7.7582354e-07 
2.7573682e-05 3.0244795e-05 -3.0859812e-07 
2.1772579e-05 2.3207598e-05 -4.3175294e-07 
2.5435507e-05 3.1478383e-05 -7.2975865e-07 
1.9391769e-05 2.2188171e-05 -6.4513375e-07 
2.5735812e-05 2.7286975e-05 -2.8143020e-07 
2.2935428e-05 2.9210647e-05 -8.3798761e-07 
2.1109752e-05 2.2610009e-05 -4.6860271e-07 
1.9725139e-05 2.3962622e-05 -7.6219442e-07 
2.3971515e-05 2.5043506e-05 -3.1544272e-07 
2.1192995e-05 2.7054723e-05 -8.6005065e-07 
3.1431322e-05 3.8937800e-05 -6.5519879e-07 
2.1760006e-05 2.5234809e-05 -6.1788262e-07 
2.7294260e-05 2.9798177e-05 -3.0969687e-07 
2.5096328e-05 3.1058415e-05 -7.3114455e-07 
1.9201139e-05 2.1922764e-05 -6.4634139e-07 
2.5482383e-05 2.6911524e-05 -2.8836604e-07 
2.9595429e-05 3.5880592e-05 -6.0168423e-07 
3.0166038e-05 3.5453417e-05 -4.7101335e-07 
2.1429923e-05 2.2722568e-05 -4.4119835e-07 
2.2654214e-05 2.8841225e-05 -8.3073422e-07 
1.9764722e-05 2.4283176e-05 -7.8095348e-07 
2.8569815e-05 3.2182917e-05 -3.6500839e-07 
2.7174741e-05 3.2960310e-05 -6.3856578e-07 
2.3749755e-05 2.4718154e-05 -3.2398438e-07 
2.0966208e-05 2.6735594e-05 -8.4757704e-07 
1.9021560e-05 2.1664930e-05 -6.4398228e-07 
2.7025597e-05 2.9369843e-05 -3.0833021e-07 
2.4779498e-05 3.0664934e-05 -7.3048182e-07 
3.1177489e-05 3.8538205e-05 -6.4666693e-07 
2.1432050e-05 2.2592751e-05 -4.3045154e-07 
1.9576944e-05 2.4037170e-05 -7.7714992e-07 
2.5245687e-05 2.6546006e-05 -2.9263305e-07 
2.2393249e-05 2.8495106e-05 -8.2831787e-07 
1.8849423e-05 2.1410853e-05 -6.4287946e-07 
2.9368664e-05 3.5525169e-05 -5.9574160e-07 
2.9932989e-05 3.5101399e-05 -4.7069284e-07 
2.3544957e-05 2.4401295e-05 -3.2475023e-07 
2.0748443e-05 2.6439106e-05 -8.4348278e-07 
2.6768388e-05 2.8956389e-05 -3.0984341e-07 
1.9358162e-05 2.3688875e-05 -7.7247591e-07 
2.4084287e-05 2.9942514e-05 -7.5026099e-07 
2.8169345e-05 3.1531348e-05 -3.6355851e-07 
2.1201049e-05 2.2261716e-05 -4.3668305e-07 
2.5016237e-05 2.6198923e-05 -2.9893403e-07 
2.2148253e-05 2.8160997e-05 -8.2302768e-07 
1.8677380e-05 2.1166830e-05 -6.4154239e-07 
3.0947631e-05 3.8162845e-05 -6.3527938e-07 
2.1041324e-05 2.4154922e-05 -6.1151815e-07 
2.3349199e-05 2.4106646e-05 -3.2751956e-07 
2.6917616e-05 3.2485787e-05 -6.2458014e-07 
1.9016818e-05 2.2947705e-05 -7.4543112e-07 
2.0540127e-05 2.6144909e-05 -8.3811983e-07 
2.0343403e-05 2.1556072e-05 -4.8180885e-07 
2.6523061e-05 2.8564016e-05 -3.1004078e-07 
2.9161847e-05 3.5190034e-05 -5.8503991e-07 
2.9722107e-05 3.4769320e-05 -4.6280019e-07 
2.4188615e-05 2.9916831e-05 -7.3210475e-07 
2.1550250e-05 2.2422950e-05 -4.1266472e-07 
1.8513632e-05 2.0933445e-05 -6.4105359e-07 
2.4801306e-05 2.5870315e-05 -3.0067915e-07 
2.1911203e-05 2.7842374e-05 -8.1745907e-07 
2.0128713e-05 2.1308104e-05 -4.8853099e-07 
1.8912713e-05 2.2877781e-05 -7.4793292e-07 
2.3163902e-05 2.3818253e-05 -3.3189178e-07 
2.0342806e-05 2.5873689e-05 -8.2939874e-07 
3.0730054e-05 3.7811627e-05 -6.2740662e-07 
2.6286489e-05 2.8186274e-05 -3.1135360e-07 
1.8358338e-05 2.0704740e-05 -6.4003666e-07 
2.3541514e-05 2.9242310e-05 -7.4690598e-07 
2.0901183e-05 2.1759299e-05 -4.3629714e-07 
2.7943994e-05 3.1216401e-05 -3.6967080e-07 
2.4591958e-05 2.5551322e-05 -3.0458983e-07 
2.2443006e-05 2.4971627e-05 -5.1312628e-07 
1.8937504e-05 2.3128279e-05 -7.6382372e-07 
2.8971092e-05 3.4874840e-05 -5.8438195e-07 
2.1688915e-05 2.7536602e-05 -8.1405062e-07 
2.9527208e-05 3.4457862e-05 -4.6494225e-07 
2.2984186e-05 2.3551007e-05 -3.4158967e-07 
2.6296002e-05 3.1654137e-05 -6.2453654e-07 