# vtk DataFile Version 4.0
vtk output
ASCII
DATASET UNSTRUCTURED_GRID
POINTS 4496 float
-4.3633327e-01 9.6409470e-01 4.4200001e+01 
-4.3633258e-01 9.6409065e-01 4.4074627e+01 
-3.2152572e-01 9.1279918e-01 4.4200001e+01 
-3.8534868e-01 8.4052670e-01 4.4200001e+01 
-3.9589554e-01 8.5545403e-01 4.4010014e+01 
-3.2616228e-01 9.1667932e-01 4.4011734e+01 
-4.3633190e-01 9.6408653e-01 4.3948376e+01 
-2.1293370e-01 8.4677851e-01 4.4200001e+01 
-2.9042658e-01 7.3813015e-01 4.4200001e+01 
-2.1010752e-01 8.4669363e-01 4.4073502e+01 
-2.8908840e-01 7.3604190e-01 4.4072292e+01 
-3.9589015e-01 8.5505831e-01 4.3883316e+01 
-3.2487559e-01 9.1697580e-01 4.3885036e+01 
-2.0722924e-01 8.4660655e-01 4.3944645e+01 
-1.1981077e-01 7.7773046e-01 4.4200001e+01 
-2.8772619e-01 7.3391593e-01 4.3942276e+01 
-4.3633121e-01 9.6408242e-01 4.3821228e+01 
-1.9739023e-01 6.6468561e-01 4.4200001e+01 
-2.9444304e-01 7.8727525e-01 4.3879974e+01 
-8.7554991e-02 7.5255024e-01 4.4042213e+01 
-1.6445170e-01 6.4084798e-01 4.4041008e+01 
-3.2357255e-01 9.1726828e-01 4.3757431e+01 
-3.9587301e-01 8.5463828e-01 4.3755711e+01 
-2.0429766e-01 8.4651643e-01 4.3813354e+01 
-2.8633916e-01 7.3175091e-01 4.3809875e+01 
-2.6899619e-02 6.8901783e-01 4.4200001e+01 
-1.0567340e-01 7.7152997e-01 4.3875790e+01 
-4.3633053e-01 9.6407831e-01 4.3693161e+01 
-8.7133333e-02 5.9509218e-01 4.4200001e+01 
-1.8777622e-01 6.5475601e-01 4.3873402e+01 
-2.0131156e-01 8.4642249e-01 4.3679543e+01 
-3.2225290e-01 9.1755641e-01 4.3628902e+01 
-3.9584404e-01 8.5419410e-01 4.3627178e+01 
-1.0114321e-03 6.6670936e-01 4.3939713e+01 
-2.8492665e-01 7.2954547e-01 4.3675007e+01 
-1.0131179e-01 7.7015632e-01 4.3743176e+01 
-6.0682178e-02 5.7631296e-01 4.3938457e+01 
3.9444737e-02 6.2338209e-01 4.4053139e+01 
-1.8470748e-01 6.5131217e-01 4.3739727e+01 
-7.0938184e-03 5.4737431e-01 4.4052326e+01 
-4.3632981e-01 9.6407413e-01 4.3564159e+01 
7.6947339e-02 5.8804804e-01 4.4200001e+01 
-1.2721874e-02 6.8194175e-01 4.3817982e+01 
-7.7214435e-02 5.8474159e-01 4.3819649e+01 
4.0195532e-02 5.2425718e-01 4.4200001e+01 
-1.9826968e-01 8.4632379e-01 4.3543118e+01 
-9.6842363e-02 7.6872379e-01 4.3607994e+01 
-3.2091641e-01 9.1783977e-01 4.3499420e+01 
-3.9580306e-01 8.5372573e-01 4.3497700e+01 
-2.8348783e-01 7.2729832e-01 4.3537586e+01 
-1.8155001e-01 6.4778340e-01 4.3603539e+01 
1.5678726e-01 5.2239102e-01 4.4060219e+01 
1.0298219e-02 6.6009766e-01 4.3674484e+01 
1.3250886e-01 4.7546524e-01 4.4058990e+01 
-4.3632913e-01 9.6407002e-01 4.3434200e+01 
-5.0139543e-02 5.6696451e-01 4.3671154e+01 
1.3504514e-01 5.4209155e-01 4.3856747e+01 
1.0361936e-01 4.8715758e-01 4.3855240e+01 
2.0846681e-01 4.8028421e-01 4.4200001e+01 
1.9279444e-01 4.4799727e-01 4.4200001e+01 
-9.2261828e-02 7.6722860e-01 4.3470158e+01 
-1.4701239e-03 6.7547697e-01 4.3552124e+01 
-1.9517080e-01 8.4621930e-01 4.3403992e+01 
-3.1956279e-01 9.1811794e-01 4.3368977e+01 
-3.9574999e-01 8.5323322e-01 4.3367252e+01 
-1.7830023e-01 6.4416617e-01 4.3464752e+01 
-6.7131944e-02 5.7555372e-01 4.3547829e+01 
-2.8202194e-01 7.2500783e-01 4.3397518e+01 
-4.3632844e-01 9.6406585e-01 4.3303261e+01 
1.5138821e-01 5.3037512e-01 4.3609200e+01 
1.2119007e-01 4.7490793e-01 4.3606068e+01 
-8.7566733e-02 7.6566672e-01 4.3329563e+01 
-1.7495437e-01 6.4045686e-01 4.3323273e+01 
-3.1819177e-01 9.1839045e-01 4.3237537e+01 
-3.9568463e-01 8.5271639e-01 4.3235813e+01 
2.2269404e-02 6.5294570e-01 4.3398811e+01 
-1.9201367e-01 8.4610778e-01 4.3262066e+01 
-3.8899176e-02 5.5709696e-01 4.3393635e+01 
-2.8052819e-01 7.2267252e-01 4.3254715e+01 
3.7877345e-01 3.8273901e-01 4.4200001e+01 
-4.3632776e-01 9.6406174e-01 4.3171322e+01 
3.9241230e-01 3.7329337e-01 4.3965439e+01 
1.0283732e-02 6.6872352e-01 4.3271511e+01 
-5.6385640e-02 5.6585240e-01 4.3265472e+01 
-8.2753494e-02 7.6403379e-01 4.3186119e+01 
-4.0345609e-01 8.6371827e-01 4.3104889e+01 
-3.1680310e-01 9.1865683e-01 4.3105087e+01 
-1.7150842e-01 6.3665158e-01 4.3179005e+01 
-1.8879703e-01 8.4598809e-01 4.3117241e+01 
-2.7900568e-01 7.2029078e-01 4.3109074e+01 
4.0610775e-01 3.6380205e-01 4.3729839e+01 
1.6776134e-01 5.1882964e-01 4.3331150e+01 
-4.3632707e-01 9.6405768e-01 4.3038357e+01 
1.4031014e-01 4.6124566e-01 4.3307755e+01 
3.4952711e-02 6.4519531e-01 4.3111935e+01 
-7.7818394e-02 7.6232505e-01 4.3039719e+01 
-3.1539652e-01 9.1891652e-01 4.2971603e+01 
-3.9551663e-01 8.5160977e-01 4.2969879e+01 
-2.6899155e-02 5.4666573e-01 4.3105160e+01 
-1.6795819e-01 6.3274628e-01 4.3031849e+01 
-1.8551964e-01 8.4585863e-01 4.2969406e+01 
4.1985780e-01 3.5425979e-01 4.3493168e+01 
-2.7745360e-01 7.1786088e-01 4.2960495e+01 
-4.3632638e-01 9.6405357e-01 4.2904346e+01 
2.2723136e-02 6.6139150e-01 4.2979332e+01 
-4.4916678e-02 5.5559248e-01 4.2971806e+01 
-3.1397179e-01 9.1916907e-01 4.2837063e+01 
-3.9541367e-01 8.5101974e-01 4.2835335e+01 
-7.2757579e-02 7.6053542e-01 4.2890255e+01 
-1.6429928e-01 6.2873662e-01 4.2881699e+01 
1.8463810e-01 5.0694346e-01 4.3035332e+01 
-1.8218029e-01 8.4571803e-01 4.2818455e+01 
1.5503895e-01 4.5003417e-01 4.3027725e+01 
-2.7587104e-01 7.1538109e-01 4.2808868e+01 
4.3366045e-01 3.4466109e-01 4.3255390e+01 
-4.3632573e-01 9.6404958e-01 4.2769268e+01 
-3.8429454e-01 8.3484912e-01 4.2710606e+01 
-3.1252861e-01 9.1941386e-01 4.2701439e+01 
4.8404284e-02 6.3678014e-01 4.2813030e+01 
-1.4070326e-02 5.3562075e-01 4.2804932e+01 
-6.7567028e-02 7.5865942e-01 4.2737610e+01 
-1.6052702e-01 6.2461799e-01 4.2728443e+01 
-1.7877772e-01 8.4556442e-01 4.2664265e+01 
-4.3632504e-01 9.6404558e-01 4.2633099e+01 
-2.7425703e-01 7.1284944e-01 4.2654083e+01 
4.4751364e-01 3.3500037e-01 4.3016472e+01 
3.5901129e-02 6.5341437e-01 4.2674721e+01 
-3.7959340e-01 8.2794034e-01 4.2568317e+01 
-3.1106678e-01 9.1965032e-01 4.2564713e+01 
-3.2659348e-02 5.4472327e-01 4.2665997e+01 
2.0396979e-01 4.9291667e-01 4.2740131e+01 
-6.2242586e-02 7.5669110e-01 4.2581669e+01 
1.7765003e-01 4.3475360e-01 4.2732578e+01 
-1.5663649e-01 6.2038553e-01 4.2571964e+01 
-4.3632439e-01 9.6404165e-01 4.2495808e+01 
-1.7531081e-01 8.4539592e-01 4.2506718e+01 
-2.7261066e-01 7.1026409e-01 4.2496017e+01 
-3.0958602e-01 9.1987789e-01 4.2426853e+01 
-3.7859210e-01 8.2613736e-01 4.2421188e+01 
4.6141517e-01 3.2527190e-01 4.2776375e+01 
6.2686495e-02 6.2762415e-01 4.2501175e+01 
-3.3570320e-04 5.2390522e-01 4.2492062e+01 
-5.6779940e-02 7.5462401e-01 4.2422298e+01 
-4.3632373e-01 9.6403772e-01 4.2357380e+01 
-1.5262254e-01 6.1603409e-01 4.2412144e+01 
-1.7177837e-01 8.4521037e-01 4.2345684e+01 
-2.7093092e-01 7.0762289e-01 4.2334549e+01 
-3.0808610e-01 9.2009580e-01 4.2287842e+01 
-3.8275370e-01 8.3137155e-01 4.2275047e+01 
4.9876589e-02 6.4471585e-01 4.2356720e+01 
-1.9539909e-02 5.3318781e-01 4.2347118e+01 
-4.3632311e-01 9.6403396e-01 4.2217781e+01 
2.1959943e-01 4.8236796e-01 4.2385345e+01 
-5.1174615e-02 7.5245124e-01 4.2259373e+01 
1.9034323e-01 4.2346162e-01 4.2378918e+01 
-1.4847966e-01 6.1155808e-01 4.2248856e+01 
4.7536272e-01 3.1546980e-01 4.2535065e+01 
-1.6817927e-01 8.4500539e-01 4.2181026e+01 
-2.6921678e-01 7.0492369e-01 4.2169544e+01 
-3.0656675e-01 9.2030340e-01 4.2147648e+01 
-3.9470181e-01 8.4769493e-01 4.2145920e+01 
7.7868804e-02 6.1763972e-01 4.2175373e+01 
-4.3632248e-01 9.6403021e-01 4.2076988e+01 
1.4390758e-02 5.1145434e-01 4.2165581e+01 
-4.5421973e-02 7.5016522e-01 4.2092751e+01 
-1.4420210e-01 6.0695171e-01 4.2081959e+01 
-3.0502778e-01 9.2049998e-01 4.2006248e+01 
-4.0175444e-01 8.5747409e-01 4.2004128e+01 
-1.6451253e-01 8.4477836e-01 4.2012604e+01 
4.8935395e-01 3.0558801e-01 4.2292507e+01 
-2.6746723e-01 7.0216429e-01 4.2000870e+01 
6.4714879e-02 6.3520777e-01 4.2024277e+01 
-4.3632188e-01 9.6402657e-01 4.1934975e+01 
-5.4755262e-03 5.2092212e-01 4.2014156e+01 
-2.3078828e-01 8.1064087e-01 4.1931458e+01 
2.3550548e-01 4.7116494e-01 4.2073269e+01 
2.0610523e-01 4.1123796e-01 4.2066772e+01 
-3.9517213e-02 7.4775779e-01 4.1922287e+01 
-1.3978374e-01 6.0220873e-01 4.1911320e+01 
-3.0346894e-01 9.2068475e-01 4.1863613e+01 
-3.9432141e-01 8.4618556e-01 4.1861881e+01 
-1.6077711e-01 8.4452641e-01 4.1840263e+01 
-2.6568118e-01 6.9934219e-01 4.1828377e+01 
-4.3632129e-01 9.6402299e-01 4.1791718e+01 
5.0338638e-01 2.9562023e-01 4.2048656e+01 
9.4028555e-02 6.0672593e-01 4.1834507e+01 
3.0205652e-02 4.9819478e-01 4.1824417e+01 
-3.8116732e-01 8.2744831e-01 4.1725647e+01 
-3.0189002e-01 9.2085695e-01 4.1719719e+01 
-3.3455357e-02 7.4522001e-01 4.1747829e+01 
-1.3521814e-01 5.9732240e-01 4.1736786e+01 
-4.3632072e-01 9.6401960e-01 4.1647179e+01 
-1.5697217e-01 8.4424627e-01 4.1663853e+01 
-2.6385748e-01 6.9645494e-01 4.1651920e+01 
8.0488607e-02 6.2478805e-01 4.1676235e+01 
2.6870471e-01 4.4547972e-01 4.1752304e+01 
9.6269641e-03 5.0785345e-01 4.1665993e+01 
2.4764967e-01 3.8646612e-01 4.1743168e+01 
-3.0029076e-01 9.2101562e-01 4.1574532e+01 
-3.9388368e-01 8.4456980e-01 4.1572796e+01 
5.1745731e-01 2.8556010e-01 4.1803486e+01 
-2.7231261e-02 7.4254233e-01 4.1569210e+01 
-1.3049847e-01 5.9228569e-01 4.1558201e+01 
-4.3632016e-01 9.6401632e-01 4.1501339e+01 
-1.5309690e-01 8.4393430e-01 4.1483204e+01 
-2.6199502e-01 6.9349992e-01 4.1471333e+01 
-2.9867104e-01 9.2115986e-01 4.1428024e+01 
-3.9364263e-01 8.4372103e-01 4.1426289e+01 
1.1125199e-01 5.9476525e-01 4.1477348e+01 
4.7217656e-02 4.8404291e-01 4.1467384e+01 
-4.3631962e-01 9.6401310e-01 4.1354160e+01 
-2.0839609e-02 7.3971421e-01 4.1386261e+01 
-1.2561750e-01 5.8709091e-01 4.1375404e+01 
5.3156406e-01 2.7540097e-01 4.1556946e+01 
-1.4915068e-01 8.4358656e-01 4.1298138e+01 
-2.9703063e-01 9.2128879e-01 4.1280167e+01 
-3.9338648e-01 8.4284443e-01 4.1278431e+01 
-2.6009262e-01 6.9047421e-01 4.1286449e+01 
2.9365057e-01 4.2687622e-01 4.1391586e+01 
9.7278498e-02 6.1333776e-01 4.1311302e+01 
2.7470219e-01 3.6807936e-01 4.1382729e+01 
2.5872495e-02 4.9389899e-01 4.1301384e+01 
-4.3631911e-01 9.6401012e-01 4.1205620e+01 
-1.4274905e-02 7.3672432e-01 4.1198803e+01 
-1.2056758e-01 5.8173001e-01 4.1188221e+01 
-2.9536936e-01 9.2140132e-01 4.1130928e+01 
[...]
POINT_DATA 4496
FIELD FieldData 5
DISPLACEMENT 3 4496  float
6.9152843e-04 8.3962042e-04 -1.5047556e-05 
6.8786391e-04 8.3377166e-04 -1.5047031e-05 
6.9552276e-04 8.4856187e-04 -1.6011732e-05 
7.0115161e-04 8.4359146e-04 -1.0773831e-05 
6.9443497e-04 8.3390757e-04 -1.1161917e-05 
6.8971730e-04 8.3941728e-04 -1.6056478e-05 
6.8417587e-04 8.2788541e-04 -1.5046232e-05 
7.0066511e-04 8.5702183e-04 -1.6108323e-05 
7.0912798e-04 8.5098570e-04 -8.7718872e-06 
6.9697219e-04 8.5133867e-04 -1.6186619e-05 
7.0555520e-04 8.4513036e-04 -8.7131957e-06 
6.9076364e-04 8.2800078e-04 -1.1143222e-05 
6.8599317e-04 8.3360879e-04 -1.6107679e-05 
6.9321203e-04 8.4554829e-04 -1.6265752e-05 
7.0604403e-04 8.6427771e-04 -1.5612026e-05 
7.0191745e-04 8.3917152e-04 -8.6546333e-06 
6.8046438e-04 8.2196074e-04 -1.5045109e-05 
7.1485050e-04 8.5823500e-04 -8.0660557e-06 
6.9594185e-04 8.3574228e-04 -1.0947701e-05 
7.0338941e-04 8.5942517e-04 -1.5380772e-05 
7.1205426e-04 8.5337856e-04 -7.9169176e-06 
6.8224722e-04 8.2776253e-04 -1.6155662e-05 
6.8706914e-04 8.2205719e-04 -1.1125413e-05 
6.8938301e-04 8.3965057e-04 -1.6345981e-05 
6.9821352e-04 8.3310495e-04 -8.5949059e-06 
7.1295630e-04 8.7152014e-04 -1.4191991e-05 
6.9704448e-04 8.5024239e-04 -1.5734453e-05 
6.7673461e-04 8.1599818e-04 -1.5042730e-05 
7.2027562e-04 8.6682808e-04 -8.0422751e-06 
7.0606446e-04 8.4373925e-04 -7.8842240e-06 
6.8548496e-04 8.3364215e-04 -1.6426406e-05 
6.7847915e-04 8.2187785e-04 -1.6205357e-05 
6.8335485e-04 8.1607845e-04 -1.1108831e-05 
7.0707587e-04 8.6137833e-04 -1.3908619e-05 
6.9444085e-04 8.2692911e-04 -8.5353349e-06 
6.9327530e-04 8.4439036e-04 -1.5796155e-05 
7.1407831e-04 8.5667300e-04 -7.9385536e-06 
7.1377121e-04 8.6983212e-04 -1.3070661e-05 
7.0241798e-04 8.3774125e-04 -7.8147050e-06 
7.1967050e-04 8.6616847e-04 -8.1550907e-06 
6.7297951e-04 8.1000355e-04 -1.5041041e-05 
7.2082726e-04 8.7962078e-04 -1.2518652e-05 
7.0232665e-04 8.5477770e-04 -1.4276461e-05 
7.0994039e-04 8.4983668e-04 -7.8485900e-06 
7.2580116e-04 8.7675644e-04 -8.4596231e-06 
6.8151404e-04 8.2751829e-04 -1.6507112e-05 
6.8943785e-04 8.3842786e-04 -1.5857251e-05 
6.7468942e-04 8.1595842e-04 -1.6252798e-05 
6.7961821e-04 8.1006199e-04 -1.1087662e-05 
6.9060188e-04 8.2064205e-04 -8.4753183e-06 
6.9870683e-04 8.3163520e-04 -7.7437771e-06 
7.2184944e-04 8.7931147e-04 -1.1790672e-05 
6.9982588e-04 8.4986235e-04 -1.3930508e-05 
7.2547089e-04 8.7736163e-04 -8.8827628e-06 
6.6920556e-04 8.0396613e-04 -1.5037263e-05 
7.0697040e-04 8.4500731e-04 -7.8117782e-06 
7.1434799e-04 8.6809573e-04 -1.2074984e-05 
7.1858044e-04 8.6557883e-04 -8.5815918e-06 
7.2923320e-04 8.8988442e-04 -1.1337200e-05 
7.3175109e-04 8.8866259e-04 -9.3647950e-06 
6.8553170e-04 8.3235215e-04 -1.5919057e-05 
6.9505227e-04 8.4323133e-04 -1.4301088e-05 
6.7747140e-04 8.2128053e-04 -1.6588865e-05 
6.7087571e-04 8.0999936e-04 -1.6302140e-05 
6.7586091e-04 8.0401031e-04 -1.1069393e-05 
6.9492823e-04 8.2542078e-04 -7.6744036e-06 
7.0268800e-04 8.3792972e-04 -7.7192517e-06 
6.8668975e-04 8.1423967e-04 -8.4160929e-06 
6.6540739e-04 7.9789554e-04 -1.5035162e-05 
7.0799876e-04 8.5777696e-04 -1.2006461e-05 
7.1221654e-04 8.5528480e-04 -8.5229476e-06 
6.8155507e-04 8.2616293e-04 -1.5977554e-05 
6.9107913e-04 8.1909192e-04 -7.6026072e-06 
6.6704367e-04 8.0400769e-04 -1.6348284e-05 
6.7208480e-04 7.9792336e-04 -1.1051501e-05 
6.9231942e-04 8.3791325e-04 -1.3943105e-05 
6.7335437e-04 8.1492140e-04 -1.6669244e-05 
6.9960445e-04 8.3292485e-04 -7.6837669e-06 
6.8270619e-04 8.0772035e-04 -8.3564455e-06 
7.3684240e-04 9.0317096e-04 -1.1767640e-05 
6.6158792e-04 7.9178595e-04 -1.5033756e-05 
7.3068740e-04 8.9323666e-04 -1.1724895e-05 
6.8737945e-04 8.3104247e-04 -1.4323834e-05 
6.9517235e-04 8.2559435e-04 -7.5870389e-06 
6.7750801e-04 8.1985432e-04 -1.6036336e-05 
6.6743162e-04 7.9125847e-04 -1.1341399e-05 
6.6318328e-04 7.9797197e-04 -1.6397533e-05 
6.8716373e-04 8.1265165e-04 -7.5323719e-06 
6.6916313e-04 8.0844457e-04 -1.6749598e-05 
6.7865488e-04 8.0108579e-04 -8.2937277e-06 
7.2449510e-04 8.8324497e-04 -1.1680836e-05 
7.0073956e-04 8.4603304e-04 -1.1945887e-05 
6.5774482e-04 7.8564417e-04 -1.5032422e-05 
7.0451514e-04 8.4281195e-04 -8.4464737e-06 
6.8454584e-04 8.2550797e-04 -1.3945977e-05 
6.7338831e-04 8.1342703e-04 -1.6091995e-05 
6.5931282e-04 7.9190690e-04 -1.6440606e-05 
6.6446286e-04 7.8563479e-04 -1.1011491e-05 
6.9196866e-04 8.2040642e-04 -7.5543712e-06 
6.8317272e-04 8.0609176e-04 -7.4595278e-06 
6.6489476e-04 8.0183969e-04 -1.6828088e-05 
7.1826635e-04 8.7318075e-04 -1.1635448e-05 
6.7452359e-04 7.9432590e-04 -8.2347506e-06 
6.5389136e-04 7.7945995e-04 -1.5026568e-05 
6.7943422e-04 8.1838615e-04 -1.4336007e-05 
6.8738166e-04 8.1281329e-04 -7.4550267e-06 
6.5541797e-04 7.8580354e-04 -1.6489110e-05 
6.6062761e-04 7.7944231e-04 -1.0994574e-05 
6.6919491e-04 8.0687465e-04 -1.6147294e-05 
6.7911431e-04 7.9941709e-04 -7.3905217e-06 
6.9299468e-04 8.3350058e-04 -1.1883584e-05 
6.6054700e-04 7.9510541e-04 -1.6905175e-05 
6.9716660e-04 8.3086034e-04 -8.3574832e-06 
6.7032385e-04 7.8745047e-04 -8.1782882e-06 
7.1200769e-04 8.6307066e-04 -1.1597079e-05 
6.5000931e-04 7.7325414e-04 -1.5022275e-05 
6.5827975e-04 7.7456597e-04 -1.0570413e-05 
6.5150758e-04 7.7967439e-04 -1.6528455e-05 
6.7649729e-04 8.1263058e-04 -1.3937381e-05 
6.8405393e-04 8.0743944e-04 -7.4279769e-06 
6.6492311e-04 8.0020051e-04 -1.6200000e-05 
6.7497714e-04 7.9262047e-04 -7.3172587e-06 
6.5612700e-04 7.8825385e-04 -1.6980654e-05 
6.4611482e-04 7.6701172e-04 -1.5015029e-05 
6.6604308e-04 7.8043796e-04 -8.1191056e-06 
7.0571445e-04 8.5289939e-04 -1.1550231e-05 
6.7120831e-04 8.0524944e-04 -1.4336333e-05 
6.5472891e-04 7.6840224e-04 -1.0387353e-05 
6.4758072e-04 7.7350700e-04 -1.6562219e-05 
6.7930663e-04 7.9957541e-04 -7.3254023e-06 
6.8544620e-04 8.2120689e-04 -1.1792715e-05 
6.6058565e-04 7.9340010e-04 -1.6254007e-05 
6.8969617e-04 8.1883231e-04 -8.3135383e-06 
6.7077181e-04 7.8570412e-04 -7.2569610e-06 
6.4220792e-04 7.6073344e-04 -1.5001253e-05 
6.5162242e-04 7.8126939e-04 -1.7059669e-05 
6.6168560e-04 7.7331101e-04 -8.0635309e-06 
6.4363005e-04 7.6731079e-04 -1.6603855e-05 
6.5065868e-04 7.6176313e-04 -1.0342814e-05 
6.9941062e-04 8.4270805e-04 -1.1499611e-05 
6.6816970e-04 7.9926668e-04 -1.3912006e-05 
6.7585614e-04 7.9401169e-04 -7.3013371e-06 
6.5616920e-04 7.8647450e-04 -1.6294940e-05 
6.3827774e-04 7.5443578e-04 -1.4993705e-05 
6.6648738e-04 7.7866385e-04 -7.1889540e-06 
6.4704189e-04 7.7415421e-04 -1.7130520e-05 
6.5725215e-04 7.6605822e-04 -8.0082209e-06 
6.3967169e-04 7.6108990e-04 -1.6639933e-05 
6.4609706e-04 7.5480150e-04 -1.0474282e-05 
6.6270120e-04 7.9161261e-04 -1.4318212e-05 
6.7095441e-04 7.8587083e-04 -7.1950203e-06 
6.3433801e-04 7.4811518e-04 -1.4984235e-05 
6.7593605e-04 8.0591225e-04 -1.1754849e-05 
6.5167953e-04 7.7942363e-04 -1.6332922e-05 
6.8025256e-04 8.0337940e-04 -8.1782928e-06 
6.6213124e-04 7.7150855e-04 -7.1238751e-06 
6.9308106e-04 8.3246524e-04 -1.1444050e-05 
6.4238248e-04 7.6690823e-04 -1.7199784e-05 
6.5273856e-04 7.5867702e-04 -7.9544661e-06 
6.3570676e-04 7.5485109e-04 -1.6670683e-05 
6.4119999e-04 7.4805139e-04 -1.0886733e-05 
6.5956818e-04 7.8541698e-04 -1.3870394e-05 
6.3038483e-04 7.4176211e-04 -1.4977015e-05 
6.6738040e-04 7.8012643e-04 -7.1871864e-06 
6.4711663e-04 7.7224604e-04 -1.6368409e-05 
6.5771124e-04 7.6422998e-04 -7.0547130e-06 
6.3170813e-04 7.4856501e-04 -1.6713526e-05 
6.3644646e-04 7.4111327e-04 -1.1140372e-05 
6.3764339e-04 7.5953058e-04 -1.7266386e-05 
6.8674120e-04 8.2219002e-04 -1.1389134e-05 
6.4816291e-04 7.5117999e-04 -7.8950752e-06 
6.5392337e-04 7.7749719e-04 -1.4281612e-05 
6.2639557e-04 7.3537423e-04 -1.4972938e-05 
6.6232285e-04 7.7170890e-04 -7.0756128e-06 
6.3795940e-04 7.5083016e-04 -1.3836345e-05 
6.6778652e-04 7.9272076e-04 -1.1693855e-05 
6.7215471e-04 7.9018937e-04 -8.0948357e-06 
6.4248277e-04 7.6494773e-04 -1.6403021e-05 
6.5321539e-04 7.5683516e-04 -6.9861135e-06 
6.2769162e-04 7.4224785e-04 -1.6747263e-05 
6.3329592e-04 7.3527271e-04 -1.0848416e-05 
6.3282310e-04 7.5203151e-04 -1.7334802e-05 
6.4351165e-04 7.4353936e-04 -7.8377707e-06 
6.2240014e-04 7.2895229e-04 -1.4959410e-05 
6.8041176e-04 8.1192510e-04 -1.1336363e-05 
6.5069430e-04 7.7107886e-04 -1.3811814e-05 
6.5862661e-04 7.6578179e-04 -7.0771416e-06 
6.3091703e-04 7.3017221e-04 -1.0369205e-05 
6.2367960e-04 7.3591946e-04 -1.6770467e-05 
6.3776632e-04 7.5750559e-04 -1.6434422e-05 
6.4863981e-04 7.4930274e-04 -6.9156581e-06 
6.1840256e-04 7.2250463e-04 -1.4938566e-05 
6.2792492e-04 7.4438192e-04 -1.7400229e-05 
6.3876522e-04 7.3576526e-04 -7.7888008e-06 
6.4486358e-04 7.6288095e-04 -1.4224843e-05 
6.6054927e-04 7.8053738e-04 -1.1463686e-05 
6.5339648e-04 7.5706892e-04 -6.9623138e-06 
6.6474464e-04 7.7852904e-04 -8.1779144e-06 
6.1964366e-04 7.2955998e-04 -1.6802733e-05 
6.2537496e-04 7.2241516e-04 -1.0795179e-05 
6.7411776e-04 8.0170645e-04 -1.1278463e-05 
6.3297665e-04 7.4992905e-04 -1.6461656e-05 
6.4399542e-04 7.4165239e-04 -6.8602076e-06 
6.1439234e-04 7.1605359e-04 -1.4923203e-05 
6.2294170e-04 7.3659775e-04 -1.7453249e-05 
6.3394528e-04 7.2786957e-04 -7.7462528e-06 
6.1561150e-04 7.2318467e-04 -1.6823717e-05 
6.2139495e-04 7.1596721e-04 -1.0781524e-05 
6.4154062e-04 7.5622968e-04 -1.3726994e-05 
6.4959028e-04 7.5096946e-04 -6.9647840e-06 
6.1036431e-04 7.0959341e-04 -1.4913458e-05 
6.2811148e-04 7.4222666e-04 -1.6475968e-05 
6.3927425e-04 7.3387439e-04 -6.7927595e-06 
6.6781649e-04 7.9145288e-04 -1.1206002e-05 
6.1788101e-04 7.2868564e-04 -1.7500475e-05 
6.1156391e-04 7.1680319e-04 -1.6843438e-05 
6.1739801e-04 7.0949021e-04 -1.0751573e-05 
6.2905421e-04 7.1983895e-04 -7.6859342e-06 
6.5173756e-04 7.6606014e-04 -1.1320888e-05 
6.3552748e-04 7.4774009e-04 -1.4149870e-05 
6.5589760e-04 7.6424307e-04 -8.1419712e-06 
6.4420438e-04 7.4195786e-04 -6.8438148e-06 
6.0633884e-04 7.0308411e-04 -1.4897504e-05 
6.2318076e-04 7.3439220e-04 -1.6495585e-05 
6.3446956e-04 7.2596659e-04 -6.7283818e-06 
6.0750620e-04 7.1037345e-04 -1.6871058e-05 
6.1340875e-04 7.0299016e-04 -1.0734633e-05 
6.1274553e-04 7.2062376e-04 -1.7558994e-05 
6.2408025e-04 7.1168423e-04 -7.6411334e-06 
6.6153839e-04 7.8122452e-04 -1.1140482e-05 
6.0229097e-04 6.9657707e-04 -1.4885122e-05 
6.3211849e-04 7.4086670e-04 -1.3623844e-05 
6.4026174e-04 7.3565973e-04 -6.8670124e-06 
6.0343975e-04 7.0394157e-04 -1.6896731e-05 
6.0939649e-04 6.9647288e-04 -1.0707639e-05 
6.1816187e-04 7.2640413e-04 -1.6501133e-05 
6.2960514e-04 7.1793888e-04 -6.6723278e-06 
5.9825048e-04 6.9003308e-04 -1.4864712e-05 
6.0753146e-04 7.1242888e-04 -1.7592942e-05 
6.1901950e-04 7.0338690e-04 -7.5882617e-06 
6.4266846e-04 7.5110095e-04 -1.1169501e-05 
6.4678583e-04 7.4950018e-04 -8.1042463e-06 
6.2730047e-04 7.3297892e-04 -1.3545630e-05 
6.5530767e-04 7.7104860e-04 -1.1074149e-05 
5.9938023e-04 6.9748494e-04 -1.6905436e-05 
6.0539303e-04 6.8995368e-04 -1.0700091e-05 
6.3548418e-04 7.2783977e-04 -6.8100348e-06 
6.1308750e-04 7.1830087e-04 -1.6499260e-05 
6.2465394e-04 7.0977479e-04 -6.6166854e-06 
5.9419248e-04 6.8350736e-04 -1.4849995e-05 
6.0222263e-04 7.0408575e-04 -1.7633567e-05 
6.1391020e-04 6.9496775e-04 -7.5452681e-06 
5.9531344e-04 6.9105031e-04 -1.6911272e-05 
6.0137251e-04 6.8341970e-04 -1.0671237e-05 
6.2242639e-04 7.2496966e-04 -1.3474742e-05 
6.0797815e-04 6.9469004e-04 -1.0905017e-05 
6.3065375e-04 7.1990344e-04 -6.7744313e-06 
5.9014099e-04 6.7694427e-04 -1.4822455e-05 
6.4906717e-04 7.6082023e-04 -1.0996495e-05 
6.3420954e-04 7.3757372e-04 -1.1189397e-05 
6.0793728e-04 7.1006158e-04 -1.6469863e-05 
6.3838012e-04 7.3534861e-04 -7.8822841e-06 
6.1964779e-04 7.0151663e-04 -6.5606705e-06 
5.9123378e-04 6.8456377e-04 -1.6904847e-05 
5.9735106e-04 6.7687221e-04 -1.0649199e-05 
5.9688697e-04 6.9564511e-04 -1.7636939e-05 
6.0870562e-04 6.8644038e-04 -7.5268485e-06 
5.8608491e-04 6.7040167e-04 -1.4807797e-05 
6.1749812e-04 7.1684906e-04 -1.3406767e-05 
6.2575482e-04 7.1185449e-04 -6.7262031e-06 
6.0273404e-04 7.0170767e-04 -1.6457885e-05 
5.8717834e-04 6.7809317e-04 -1.6909222e-05 
5.9334951e-04 6.7033066e-04 -1.0626126e-05 
6.1456341e-04 6.9313077e-04 -6.4961068e-06 
6.4284640e-04 7.5067551e-04 -1.0940923e-05 
5.9144781e-04 6.8705686e-04 -1.7672830e-05 
5.8203575e-04 6.6384120e-04 -1.4783560e-05 
6.3384738e-04 7.2900043e-04 -8.2663682e-06 
6.3102366e-04 7.3099474e-04 -1.0669954e-05 
6.0344109e-04 6.7778374e-04 -7.4707655e-06 
6.1250862e-04 7.0861314e-04 -1.3313949e-05 
6.2078197e-04 7.0368289e-04 -6.6933312e-06 
5.8310892e-04 6.7161029e-04 -1.6917795e-05 
5.8933167e-04 6.6377898e-04 -1.0603455e-05 
5.9745408e-04 6.9321209e-04 -1.6439044e-05 
6.0942594e-04 6.8462227e-04 -6.4435667e-06 
5.7796913e-04 6.5726455e-04 -1.4756380e-05 
6.3668983e-04 7.4055250e-04 -1.0846255e-05 
5.8592152e-04 6.7831896e-04 -1.7703484e-05 
5.9810240e-04 6.6898629e-04 -7.4176546e-06 
5.7901954e-04 6.6511438e-04 -1.6922906e-05 
5.8528635e-04 6.5720634e-04 -1.0584591e-05 
6.2774931e-04 7.1897340e-04 -8.2058559e-06 
6.2493724e-04 7.2099309e-04 -1.0595868e-05 
6.0727907e-04 7.0003100e-04 -1.3227711e-05 
6.1552023e-04 6.9501920e-04 -6.6490002e-06 
5.8852643e-04 6.6733401e-04 -1.2298417e-05 
5.7391456e-04 6.5068877e-04 -1.4722902e-05 
5.9197628e-04 6.8449898e-04 -1.6443597e-05 
6.0406589e-04 6.7578891e-04 -6.4182136e-06 
5.7492091e-04 6.5849390e-04 -1.6881972e-05 
5.8117928e-04 6.5063051e-04 -1.0618619e-05 
5.8044546e-04 6.6961336e-04 -1.7683024e-05 
6.3059852e-04 7.3052029e-04 -1.0747740e-05 
5.9282524e-04 6.6032633e-04 -7.3987480e-06 
5.6992692e-04 6.4425950e-04 -1.4707551e-05 
6.0142163e-04 6.9083768e-04 -1.3297594e-05 
6.0996064e-04 6.8574492e-04 -6.5669997e-06 
6.2176376e-04 7.0912443e-04 -8.1380622e-06 
6.1896991e-04 7.1115146e-04 -1.0502415e-05 
5.8301957e-04 6.5852149e-04 -1.2320140e-05 
5.7091762e-04 6.5202353e-04 -1.6832852e-05 
5.8635656e-04 6.7568268e-04 -1.6481439e-05 
5.7714002e-04 6.4415328e-04 -1.0635266e-05 
5.9873064e-04 6.6700403e-04 -6.3881876e-06 
5.6603370e-04 6.3790492e-04 -1.4667132e-05 
5.7516026e-04 6.6118204e-04 -1.7668115e-05 
5.8770797e-04 6.5192848e-04 -7.3808137e-06 
6.2458421e-04 7.2058511e-04 -1.0654283e-05 
5.9562013e-04 6.8191055e-04 -1.3438661e-05 
6.0457771e-04 6.7675544e-04 -6.4977012e-06 
5.6695240e-04 6.4561906e-04 -1.6812210e-05 
5.7316723e-04 6.3779065e-04 -1.0657916e-05 
6.0912187e-04 6.9637032e-04 -1.0882076e-05 
6.1333063e-04 6.9411926e-04 -7.6399310e-06 
5.8092485e-04 6.6714484e-04 -1.6521362e-05 
5.9354363e-04 6.5843755e-04 -6.3519406e-06 
5.7645369e-04 6.4790546e-04 -1.2291923e-05 
5.6219357e-04 6.3167920e-04 -1.4643733e-05 
5.8274268e-04 6.4374111e-04 -7.3459646e-06 
5.7001086e-04 6.5296196e-04 -1.7647966e-05 
5.6308677e-04 6.3933188e-04 -1.6776390e-05 
5.6926731e-04 6.3154363e-04 -1.0678651e-05 
5.9933419e-04 6.6800363e-04 -6.4212968e-06 
5.8999233e-04 6.7323586e-04 -1.3576046e-05 
6.1867072e-04 7.1083108e-04 -1.0579086e-05 
5.5839837e-04 6.2554504e-04 -1.4625668e-05 
5.8849342e-04 6.5011129e-04 -6.3148536e-06 
5.7563948e-04 6.5885176e-04 -1.6561791e-05 
6.0733536e-04 6.9193111e-04 -1.0366753e-05 
6.0746446e-04 6.8460300e-04 -7.6758670e-06 
5.5926084e-04 6.3313940e-04 -1.6732742e-05 
5.6497066e-04 6.2498549e-04 -1.0801697e-05 
5.7792914e-04 6.3575571e-04 -7.2812250e-06 
5.6502112e-04 6.4501952e-04 -1.7658193e-05 
5.6658825e-04 6.3351670e-04 -1.2803776e-05 
5.5467396e-04 6.1946292e-04 -1.4579825e-05 
5.9420732e-04 6.5947650e-04 -6.3762150e-06 
5.8828422e-04 6.6774787e-04 -1.2621560e-05 
5.8356434e-04 6.4201833e-04 -6.3161483e-06 
5.7052693e-04 6.5077015e-04 -1.6594300e-05 
5.5549311e-04 6.2701304e-04 -1.6680442e-05 
6.1291142e-04 7.0130016e-04 -1.0516846e-05 
5.6162378e-04 6.1926746e-04 -1.0696487e-05 
5.6901947e-04 6.3353288e-04 -1.1466293e-05 
6.0217024e-04 6.7582994e-04 -7.5992502e-06 
5.5100920e-04 6.1351154e-04 -1.4550159e-05 
5.7318615e-04 6.2801206e-04 -7.2950602e-06 
5.6017278e-04 6.3723879e-04 -1.7620574e-05 
6.0165132e-04 6.8251969e-04 -1.0275498e-05 
5.8923248e-04 6.5119920e-04 -6.2956706e-06 
5.7924428e-04 6.5659982e-04 -1.3758808e-05 
5.5179646e-04 6.2101061e-04 -1.6655629e-05 
5.5791397e-04 6.1329518e-04 -1.0711398e-05 
5.7878951e-04 6.3414819e-04 -6.2790627e-06 
5.6556618e-04 6.4291118e-04 -1.6602451e-05 
5.6106789e-04 6.2102650e-04 -1.1581389e-05 
5.4739753e-04 6.0764869e-04 -1.4523837e-05 
6.0721824e-04 6.9187809e-04 -1.0464412e-05 
5.6861102e-04 6.2045059e-04 -7.2454563e-06 
5.5545510e-04 6.2969275e-04 -1.7601289e-05 
5.9520081e-04 6.6342979e-04 -7.2208154e-06 
5.8925652e-04 6.6487945e-04 -1.1083414e-05 
5.4815324e-04 6.1509153e-04 -1.6615824e-05 
5.8440014e-04 6.4312748e-04 -6.2321355e-06 
5.5608258e-04 6.0834922e-04 -1.0027504e-05 
5.7411951e-04 6.4866187e-04 -1.3860786e-05 
5.4382306e-04 6.0185569e-04 -1.4500307e-05 
5.7413068e-04 6.2645954e-04 -6.2376866e-06 
5.6073646e-04 6.3528831e-04 -1.6608812e-05 
5.5062945e-04 6.0160167e-04 -1.0737101e-05 
5.4406578e-04 6.0798036e-04 -1.6413958e-05 
5.6415814e-04 6.1308889e-04 -7.2174848e-06 
5.5085972e-04 6.2233570e-04 -1.7585213e-05 
6.0161558e-04 6.8254507e-04 -1.0377010e-05 
5.5282249e-04 6.1251665e-04 -1.3188691e-05 
5.7969801e-04 6.3529331e-04 -6.1802893e-06 
5.6910794e-04 6.4090581e-04 -1.3955972e-05 
5.4031226e-04 5.9618545e-04 -1.4484072e-05 
5.6957797e-04 6.1901397e-04 -6.2342988e-06 
5.9057015e-04 6.6405989e-04 -1.0127222e-05 
5.9326924e-04 6.6204212e-04 -7.8937246e-06 
5.4986245e-04 5.9827312e-04 -1.0037428e-05 
5.5602472e-04 6.2781741e-04 -1.6602324e-05 
5.4192782e-04 6.0555973e-04 -1.6730168e-05 
5.8481097e-04 6.4501981e-04 -6.6917582e-06 
5.7784322e-04 6.4805895e-04 -1.1623611e-05 
5.5978080e-04 6.0592662e-04 -7.2130215e-06 
5.4644619e-04 6.1517255e-04 -1.7503438e-05 
5.3688139e-04 5.9059885e-04 -1.4445532e-05 
5.7510601e-04 6.2764733e-04 -6.1208816e-06 
5.6427543e-04 6.3340127e-04 -1.4033074e-05 
5.9601996e-04 6.7322032e-04 -1.0284746e-05 
5.4699805e-04 5.9280521e-04 -9.7437642e-06 
5.3820049e-04 5.9959770e-04 -1.6708069e-05 
5.6516420e-04 6.1171333e-04 -6.2161007e-06 
5.5148266e-04 6.2059605e-04 -1.6617885e-05 
5.3350767e-04 5.8507663e-04 -1.4409658e-05 
5.8512477e-04 6.5499300e-04 -1.0036862e-05 
5.8779167e-04 6.5298949e-04 -7.8435542e-06 
5.5554759e-04 5.9890980e-04 -7.1618938e-06 
5.4213597e-04 6.0824101e-04 -1.7474566e-05 
5.7062547e-04 6.2018621e-04 -6.0765178e-06 
5.3442648e-04 5.9333118e-04 -1.6631777e-05 
5.5740663e-04 6.2394672e-04 -1.4561447e-05 
5.7697686e-04 6.3190906e-04 -6.5789814e-06 
5.4266676e-04 5.8577250e-04 -9.7520006e-06 
5.6084024e-04 6.0461264e-04 -6.2081613e-06 
5.4707727e-04 6.1354128e-04 -1.6606782e-05 
5.3015171e-04 5.7964615e-04 -1.4374124e-05 
5.9057208e-04 6.6408591e-04 -1.0173818e-05 
5.4045737e-04 5.9227872e-04 -1.3058153e-05 
5.5140839e-04 5.9211336e-04 -7.1284835e-06 
5.6924834e-04 6.3337199e-04 -1.1351489e-05 
5.3055101e-04 5.8602937e-04 -1.6241935e-05 
5.3793198e-04 6.0142297e-04 -1.7437002e-05 
5.3676148e-04 5.7933113e-04 -1.0768765e-05 
5.6625775e-04 6.1293016e-04 -6.0273842e-06 
5.7980197e-04 6.4608624e-04 -9.9225535e-06 
5.8245007e-04 6.4409565e-04 -7.7529985e-06 
5.5499235e-04 6.1892607e-04 -1.4185104e-05 
5.4131710e-04 5.8149191e-04 -9.0561307e-06 
5.2686146e-04 5.7431083e-04 -1.4345354e-05 
5.5663823e-04 5.9770676e-04 -6.1704600e-06 
5.4276764e-04 6.0666970e-04 -1.6594535e-05 
5.3362281e-04 5.7459663e-04 -1.0872526e-05 
5.2751182e-04 5.8141589e-04 -1.6308239e-05 
5.4737349e-04 5.8543833e-04 -7.1013078e-06 
5.3383608e-04 5.9483107e-04 -1.7380218e-05 
5.8520411e-04 6.5512583e-04 -1.0083892e-05 
5.6198071e-04 6.0584466e-04 -5.9867416e-06 
5.2363006e-04 5.6904159e-04 -1.4308823e-05 
5.4847647e-04 6.0993870e-04 -1.4656021e-05 
5.3507334e-04 5.7302759e-04 -9.5807254e-06 
5.6950498e-04 6.1965478e-04 -6.5617846e-06 
5.5251661e-04 5.9094426e-04 -6.1570922e-06 
5.4217357e-04 5.8789353e-04 -1.0674515e-05 
5.2529282e-04 5.7868211e-04 -1.6565817e-05 
5.7457160e-04 6.3733169e-04 -9.8569753e-06 
5.3858344e-04 5.9996796e-04 -1.6587490e-05 
5.7719916e-04 6.3535792e-04 -7.7126460e-06 
5.4341677e-04 5.7897274e-04 -7.1058548e-06 
5.6000456e-04 6.1885105e-04 -1.1480141e-05 