# vtk DataFile Version 4.0
vtk output
ASCII
DATASET UNSTRUCTURED_GRID
POINTS 4496 float
-4.3633327e-01 9.6409470e-01 4.4200001e+01 
-4.3633258e-01 9.6409065e-01 4.4074627e+01 
-3.2152572e-01 9.1279918e-01 4.4200001e+01 
-3.8534868e-01 8.4052670e-01 4.4200001e+01 
-3.9589554e-01 8.5545403e-01 4.4010014e+01 
-3.2616228e-01 9.1667932e-01 4.4011734e+01 
-4.3633190e-01 9.6408653e-01 4.3948376e+01 
-2.1293370e-01 8.4677851e-01 4.4200001e+01 
-2.9042658e-01 7.3813015e-01 4.4200001e+01 
-2.1010752e-01 8.4669363e-01 4.4073502e+01 
-2.8908840e-01 7.3604190e-01 4.4072292e+01 
-3.9589015e-01 8.5505831e-01 4.3883316e+01 
-3.2487559e-01 9.1697580e-01 4.3885036e+01 
-2.0722924e-01 8.4660655e-01 4.3944645e+01 
-1.1981077e-01 7.7773046e-01 4.4200001e+01 
-2.8772619e-01 7.3391593e-01 4.3942276e+01 
-4.3633121e-01 9.6408242e-01 4.3821228e+01 
-1.9739023e-01 6.6468561e-01 4.4200001e+01 
-2.9444304e-01 7.8727525e-01 4.3879974e+01 
-8.7554991e-02 7.5255024e-01 4.4042213e+01 
-1.6445170e-01 6.4084798e-01 4.4041008e+01 
-3.2357255e-01 9.1726828e-01 4.3757431e+01 
-3.9587301e-01 8.5463828e-01 4.3755711e+01 
-2.0429766e-01 8.4651643e-01 4.3813354e+01 
-2.8633916e-01 7.3175091e-01 4.3809875e+01 
-2.6899619e-02 6.8901783e-01 4.4200001e+01 
-1.0567340e-01 7.7152997e-01 4.3875790e+01 
-4.3633053e-01 9.6407831e-01 4.3693161e+01 
-8.7133333e-02 5.9509218e-01 4.4200001e+01 
-1.8777622e-01 6.5475601e-01 4.3873402e+01 
-2.0131156e-01 8.4642249e-01 4.3679543e+01 
-3.2225290e-01 9.1755641e-01 4.3628902e+01 
-3.9584404e-01 8.5419410e-01 4.3627178e+01 
-1.0114321e-03 6.6670936e-01 4.3939713e+01 
-2.8492665e-01 7.2954547e-01 4.3675007e+01 
-1.0131179e-01 7.7015632e-01 4.3743176e+01 
-6.0682178e-02 5.7631296e-01 4.3938457e+01 
3.9444737e-02 6.2338209e-01 4.4053139e+01 
-1.8470748e-01 6.5131217e-01 4.3739727e+01 
-7.0938184e-03 5.4737431e-01 4.4052326e+01 
-4.3632981e-01 9.6407413e-01 4.3564159e+01 
7.6947339e-02 5.8804804e-01 4.4200001e+01 
-1.2721874e-02 6.8194175e-01 4.3817982e+01 
-7.7214435e-02 5.8474159e-01 4.3819649e+01 
4.0195532e-02 5.2425718e-01 4.4200001e+01 
-1.9826968e-01 8.4632379e-01 4.3543118e+01 
-9.6842363e-02 7.6872379e-01 4.3607994e+01 
-3.2091641e-01 9.1783977e-01 4.3499420e+01 
-3.9580306e-01 8.5372573e-01 4.3497700e+01 
-2.8348783e-01 7.2729832e-01 4.3537586e+01 
-1.8155001e-01 6.4778340e-01 4.3603539e+01 
1.5678726e-01 5.2239102e-01 4.4060219e+01 
1.0298219e-02 6.6009766e-01 4.3674484e+01 
1.3250886e-01 4.7546524e-01 4.4058990e+01 
-4.3632913e-01 9.6407002e-01 4.3434200e+01 
-5.0139543e-02 5.6696451e-01 4.3671154e+01 
1.3504514e-01 5.4209155e-01 4.3856747e+01 
1.0361936e-01 4.8715758e-01 4.3855240e+01 
2.0846681e-01 4.8028421e-01 4.4200001e+01 
1.9279444e-01 4.4799727e-01 4.4200001e+01 
-9.2261828e-02 7.6722860e-01 4.3470158e+01 
-1.4701239e-03 6.7547697e-01 4.3552124e+01 
-1.9517080e-01 8.4621930e-01 4.3403992e+01 
-3.1956279e-01 9.1811794e-01 4.3368977e+01 
-3.9574999e-01 8.5323322e-01 4.3367252e+01 
-1.7830023e-01 6.4416617e-01 4.3464752e+01 
-6.7131944e-02 5.7555372e-01 4.3547829e+01 
-2.8202194e-01 7.2500783e-01 4.3397518e+01 
-4.3632844e-01 9.6406585e-01 4.3303261e+01 
1.5138821e-01 5.3037512e-01 4.3609200e+01 
1.2119007e-01 4.7490793e-01 4.3606068e+01 
-8.7566733e-02 7.6566672e-01 4.3329563e+01 
-1.7495437e-01 6.4045686e-01 4.3323273e+01 
-3.1819177e-01 9.1839045e-01 4.3237537e+01 
-3.9568463e-01 8.5271639e-01 4.3235813e+01 
2.2269404e-02 6.5294570e-01 4.3398811e+01 
-1.9201367e-01 8.4610778e-01 4.3262066e+01 
-3.8899176e-02 5.5709696e-01 4.3393635e+01 
-2.8052819e-01 7.2267252e-01 4.3254715e+01 
3.7877345e-01 3.8273901e-01 4.4200001e+01 
-4.3632776e-01 9.6406174e-01 4.3171322e+01 
3.9241230e-01 3.7329337e-01 4.3965439e+01 
1.0283732e-02 6.6872352e-01 4.3271511e+01 
-5.6385640e-02 5.6585240e-01 4.3265472e+01 
-8.2753494e-02 7.6403379e-01 4.3186119e+01 
-4.0345609e-01 8.6371827e-01 4.3104889e+01 
-3.1680310e-01 9.1865683e-01 4.3105087e+01 
-1.7150842e-01 6.3665158e-01 4.3179005e+01 
-1.8879703e-01 8.4598809e-01 4.3117241e+01 
-2.7900568e-01 7.2029078e-01 4.3109074e+01 
4.0610775e-01 3.6380205e-01 4.3729839e+01 
1.6776134e-01 5.1882964e-01 4.3331150e+01 
-4.3632707e-01 9.6405768e-01 4.3038357e+01 
1.4031014e-01 4.6124566e-01 4.3307755e+01 
3.4952711e-02 6.4519531e-01 4.3111935e+01 
-7.7818394e-02 7.6232505e-01 4.3039719e+01 
-3.1539652e-01 9.1891652e-01 4.2971603e+01 
-3.9551663e-01 8.5160977e-01 4.2969879e+01 
-2.6899155e-02 5.4666573e-01 4.3105160e+01 
-1.6795819e-01 6.3274628e-01 4.3031849e+01 
-1.8551964e-01 8.4585863e-01 4.2969406e+01 
4.1985780e-01 3.5425979e-01 4.3493168e+01 
-2.7745360e-01 7.1786088e-01 4.2960495e+01 
-4.3632638e-01 9.6405357e-01 4.2904346e+01 
2.2723136e-02 6.6139150e-01 4.2979332e+01 
-4.4916678e-02 5.5559248e-01 4.2971806e+01 
-3.1397179e-01 9.1916907e-01 4.2837063e+01 
-3.9541367e-01 8.5101974e-01 4.2835335e+01 
-7.2757579e-02 7.6053542e-01 4.2890255e+01 
-1.6429928e-01 6.2873662e-01 4.2881699e+01 
1.8463810e-01 5.0694346e-01 4.3035332e+01 
-1.8218029e-01 8.4571803e-01 4.2818455e+01 
1.5503895e-01 4.5003417e-01 4.3027725e+01 
-2.7587104e-01 7.1538109e-01 4.2808868e+01 
4.3366045e-01 3.4466109e-01 4.3255390e+01 
-4.3632573e-01 9.6404958e-01 4.2769268e+01 
-3.8429454e-01 8.3484912e-01 4.2710606e+01 
-3.1252861e-01 9.1941386e-01 4.2701439e+01 
4.8404284e-02 6.3678014e-01 4.2813030e+01 
-1.4070326e-02 5.3562075e-01 4.2804932e+01 
-6.7567028e-02 7.5865942e-01 4.2737610e+01 
-1.6052702e-01 6.2461799e-01 4.2728443e+01 
-1.7877772e-01 8.4556442e-01 4.2664265e+01 
-4.3632504e-01 9.6404558e-01 4.2633099e+01 
-2.7425703e-01 7.1284944e-01 4.2654083e+01 
4.4751364e-01 3.3500037e-01 4.3016472e+01 
3.5901129e-02 6.5341437e-01 4.2674721e+01 
-3.7959340e-01 8.2794034e-01 4.2568317e+01 
-3.1106678e-01 9.1965032e-01 4.2564713e+01 
-3.2659348e-02 5.4472327e-01 4.2665997e+01 
2.0396979e-01 4.9291667e-01 4.2740131e+01 
-6.2242586e-02 7.5669110e-01 4.2581669e+01 
1.7765003e-01 4.3475360e-01 4.2732578e+01 
-1.5663649e-01 6.2038553e-01 4.2571964e+01 
-4.3632439e-01 9.6404165e-01 4.2495808e+01 
-1.7531081e-01 8.4539592e-01 4.2506718e+01 
-2.7261066e-01 7.1026409e-01 4.2496017e+01 
-3.0958602e-01 9.1987789e-01 4.2426853e+01 
-3.7859210e-01 8.2613736e-01 4.2421188e+01 
4.6141517e-01 3.2527190e-01 4.2776375e+01 
6.2686495e-02 6.2762415e-01 4.2501175e+01 
-3.3570320e-04 5.2390522e-01 4.2492062e+01 
-5.6779940e-02 7.5462401e-01 4.2422298e+01 
-4.3632373e-01 9.6403772e-01 4.2357380e+01 
-1.5262254e-01 6.1603409e-01 4.2412144e+01 
-1.7177837e-01 8.4521037e-01 4.2345684e+01 
-2.7093092e-01 7.0762289e-01 4.2334549e+01 
-3.0808610e-01 9.2009580e-01 4.2287842e+01 
-3.8275370e-01 8.3137155e-01 4.2275047e+01 
4.9876589e-02 6.4471585e-01 4.2356720e+01 
-1.9539909e-02 5.3318781e-01 4.2347118e+01 
-4.3632311e-01 9.6403396e-01 4.2217781e+01 
2.1959943e-01 4.8236796e-01 4.2385345e+01 
-5.1174615e-02 7.5245124e-01 4.2259373e+01 
1.9034323e-01 4.2346162e-01 4.2378918e+01 
-1.4847966e-01 6.1155808e-01 4.2248856e+01 
4.7536272e-01 3.1546980e-01 4.2535065e+01 
-1.6817927e-01 8.4500539e-01 4.2181026e+01 
-2.6921678e-01 7.0492369e-01 4.2169544e+01 
-3.0656675e-01 9.2030340e-01 4.2147648e+01 
-3.9470181e-01 8.4769493e-01 4.2145920e+01 
7.7868804e-02 6.1763972e-01 4.2175373e+01 
-4.3632248e-01 9.6403021e-01 4.2076988e+01 
1.4390758e-02 5.1145434e-01 4.2165581e+01 
-4.5421973e-02 7.5016522e-01 4.2092751e+01 
-1.4420210e-01 6.0695171e-01 4.2081959e+01 
-3.0502778e-01 9.2049998e-01 4.2006248e+01 
-4.0175444e-01 8.5747409e-01 4.2004128e+01 
-1.6451253e-01 8.4477836e-01 4.2012604e+01 
4.8935395e-01 3.0558801e-01 4.2292507e+01 
-2.6746723e-01 7.0216429e-01 4.2000870e+01 
6.4714879e-02 6.3520777e-01 4.2024277e+01 
-4.3632188e-01 9.6402657e-01 4.1934975e+01 
-5.4755262e-03 5.2092212e-01 4.2014156e+01 
-2.3078828e-01 8.1064087e-01 4.1931458e+01 
2.3550548e-01 4.7116494e-01 4.2073269e+01 
2.0610523e-01 4.1123796e-01 4.2066772e+01 
-3.9517213e-02 7.4775779e-01 4.1922287e+01 
-1.3978374e-01 6.0220873e-01 4.1911320e+01 
-3.0346894e-01 9.2068475e-01 4.1863613e+01 
-3.9432141e-01 8.4618556e-01 4.1861881e+01 
-1.6077711e-01 8.4452641e-01 4.1840263e+01 
-2.6568118e-01 6.9934219e-01 4.1828377e+01 
-4.3632129e-01 9.6402299e-01 4.1791718e+01 
5.0338638e-01 2.9562023e-01 4.2048656e+01 
9.4028555e-02 6.0672593e-01 4.1834507e+01 
3.0205652e-02 4.9819478e-01 4.1824417e+01 
-3.8116732e-01 8.2744831e-01 4.1725647e+01 
-3.0189002e-01 9.2085695e-01 4.1719719e+01 
-3.3455357e-02 7.4522001e-01 4.1747829e+01 
-1.3521814e-01 5.9732240e-01 4.1736786e+01 
-4.3632072e-01 9.6401960e-01 4.1647179e+01 
-1.5697217e-01 8.4424627e-01 4.1663853e+01 
-2.6385748e-01 6.9645494e-01 4.1651920e+01 
8.0488607e-02 6.2478805e-01 4.1676235e+01 
2.6870471e-01 4.4547972e-01 4.1752304e+01 
9.6269641e-03 5.0785345e-01 4.1665993e+01 
2.4764967e-01 3.8646612e-01 4.1743168e+01 
-3.0029076e-01 9.2101562e-01 4.1574532e+01 
-3.9388368e-01 8.4456980e-01 4.1572796e+01 
5.1745731e-01 2.8556010e-01 4.1803486e+01 
-2.7231261e-02 7.4254233e-01 4.1569210e+01 
-1.3049847e-01 5.9228569e-01 4.1558201e+01 
-4.3632016e-01 9.6401632e-01 4.1501339e+01 
-1.5309690e-01 8.4393430e-01 4.1483204e+01 
-2.6199502e-01 6.9349992e-01 4.1471333e+01 
-2.9867104e-01 9.2115986e-01 4.1428024e+01 
-3.9364263e-01 8.4372103e-01 4.1426289e+01 
1.1125199e-01 5.9476525e-01 4.1477348e+01 
4.7217656e-02 4.8404291e-01 4.1467384e+01 
-4.3631962e-01 9.6401310e-01 4.1354160e+01 
-2.0839609e-02 7.3971421e-01 4.1386261e+01 
-1.2561750e-01 5.8709091e-01 4.1375404e+01 
5.3156406e-01 2.7540097e-01 4.1556946e+01 
-1.4915068e-01 8.4358656e-01 4.1298138e+01 
-2.9703063e-01 9.2128879e-01 4.1280167e+01 
-3.9338648e-01 8.4284443e-01 4.1278431e+01 
-2.6009262e-01 6.9047421e-01 4.1286449e+01 
2.9365057e-01 4.2687622e-01 4.1391586e+01 
9.7278498e-02 6.1333776e-01 4.1311302e+01 
2.7470219e-01 3.6807936e-01 4.1382729e+01 
2.5872495e-02 4.9389899e-01 4.1301384e+01 
-4.3631911e-01 9.6401012e-01 4.1205620e+01 
-1.4274905e-02 7.3672432e-01 4.1198803e+01 
-1.2056758e-01 5.8173001e-01 4.1188221e+01 
-2.9536936e-01 9.2140132e-01 4.1130928e+01 
[...]
POINT_DATA 4496
FIELD FieldData 5
DISPLACEMENT 3 4496  float
7.7448668e-08 9.7540621e-08 -2.7679885e-09 
7.5291908e-08 9.4639333e-08 -2.7669871e-09 
9.3637951e-08 1.3377870e-07 -3.5615477e-09 
1.1645061e-07 1.1363213e-07 -7.8586765e-10 
1.0846401e-07 1.0591013e-07 -9.5208308e-10 
8.9172318e-08 1.2795427e-07 -3.5693213e-09 
7.3132583e-08 9.1739338e-08 -2.7645712e-09 
1.1448298e-07 1.6807186e-07 -3.9127523e-09 
1.4878398e-07 1.4360086e-07 -4.6875379e-11 
1.1232039e-07 1.6602372e-07 -3.9583337e-09 
1.4722983e-07 1.4105581e-07 -1.9863342e-11 
1.0641519e-07 1.0300070e-07 -9.4176500e-10 
8.6911484e-08 1.2544018e-07 -3.5998022e-09 
1.1012631e-07 1.6392930e-07 -4.0024069e-09 
1.3628831e-07 1.9748671e-07 -3.9313748e-09 
1.4564323e-07 1.3848002e-07 1.5793261e-12 
7.0974309e-08 8.8840004e-08 -2.7617506e-09 
1.7198593e-07 1.7298794e-07 4.9042482e-11 
1.2773503e-07 1.3492094e-07 -1.1212898e-09 
1.4149845e-07 2.0399419e-07 -3.9080383e-09 
1.7674247e-07 1.7967706e-07 3.4581001e-11 
8.4661941e-08 1.2292529e-07 -3.6117604e-09 
1.0436536e-07 1.0010055e-07 -9.4041142e-10 
1.0790212e-07 1.6180574e-07 -4.0482915e-09 
1.4402953e-07 1.3586423e-07 2.5042905e-11 
1.6431359e-07 2.2685721e-07 -3.4905070e-09 
1.3262634e-07 1.9437400e-07 -4.0268828e-09 
6.8851129e-08 8.5943782e-08 -2.7544522e-09 
1.9399361e-07 2.0782905e-07 -2.3584293e-10 
1.6941743e-07 1.6841052e-07 1.1378043e-10 
1.0565820e-07 1.5965171e-07 -4.0906412e-09 
8.2421209e-08 1.2041102e-07 -3.6373002e-09 
1.0233170e-07 9.7218916e-08 -9.5053732e-10 
1.6681649e-07 2.2891348e-07 -3.4266963e-09 
1.4238188e-07 1.3321549e-07 4.5522461e-11 
1.3077224e-07 1.9264358e-07 -4.0659964e-09 
1.9532985e-07 2.1004284e-07 -2.4881458e-10 
1.8248430e-07 2.4438626e-07 -3.1213896e-09 
1.6815279e-07 1.6627260e-07 1.3706411e-10 
2.0649499e-07 2.2965894e-07 -5.0296250e-10 
6.6715543e-08 8.3089645e-08 -2.7517117e-09 
1.9624053e-07 2.5973341e-07 -2.9471725e-09 
1.5987831e-07 2.2233814e-07 -3.5784098e-09 
1.9056539e-07 2.0203115e-07 -1.5691773e-10 
2.1642732e-07 2.4810902e-07 -7.8398094e-10 
1.0338091e-07 1.5745215e-07 -4.1320112e-09 
1.2889936e-07 1.9088353e-07 -4.1024379e-09 
8.0190468e-08 1.1791271e-07 -3.6499344e-09 
1.0030668e-07 9.4341793e-08 -9.3461527e-10 
1.4072360e-07 1.3054267e-07 6.3168734e-11 
1.6687669e-07 1.6410962e-07 1.6269117e-10 
2.1454453e-07 2.8168733e-07 -2.8093468e-09 
1.6424939e-07 2.2618651e-07 -3.4726846e-09 
2.2936958e-07 2.7397530e-07 -1.2484402e-09 
6.4611072e-08 8.0206924e-08 -2.7440301e-09 
1.9353006e-07 2.0706693e-07 -2.1110816e-10 
2.0469503e-07 2.6991782e-07 -2.8989438e-09 
2.2201563e-07 2.5995669e-07 -1.0081851e-09 
2.3037610e-07 3.0142670e-07 -2.7242792e-09 
2.4060282e-07 2.9646384e-07 -1.6557347e-09 
1.2701392e-07 1.8909208e-07 -4.1467114e-09 
1.5727383e-07 2.1958091e-07 -3.6168739e-09 
1.0108747e-07 1.5523842e-07 -4.1771879e-09 
7.7956933e-08 1.1540567e-07 -3.6809573e-09 
9.8289689e-08 9.1480352e-08 -9.4086672e-10 
1.6557954e-07 1.6193412e-07 1.7958975e-10 
1.8862092e-07 1.9881935e-07 -1.2819698e-10 
1.3902553e-07 1.2782863e-07 7.5689122e-11 
6.2500540e-08 7.7351601e-08 -2.7490170e-09 
2.0396153e-07 2.6906977e-07 -2.9167257e-09 
2.2136950e-07 2.5948830e-07 -1.0156189e-09 
1.2511472e-07 1.8728640e-07 -4.1752264e-09 
1.6425859e-07 1.5972115e-07 2.0358217e-10 
7.5754045e-08 1.1292609e-07 -3.6959480e-09 
9.6300084e-08 8.8629683e-08 -9.5927855e-10 
1.6167586e-07 2.2338720e-07 -3.5085035e-09 
9.8771686e-08 1.5297547e-07 -4.2133008e-09 
1.9167761e-07 2.0404991e-07 -1.7340440e-10 
1.3730343e-07 1.2508622e-07 9.2097982e-11 
2.6129985e-07 3.5541811e-07 -3.4149481e-09 
6.0401149e-08 7.4494629e-08 -2.7553124e-09 
2.6002593e-07 3.5394851e-07 -3.4299308e-09 
1.5451266e-07 2.1659908e-07 -3.6529968e-09 
1.8662767e-07 1.9555772e-07 -8.9098368e-11 
1.2320977e-07 1.8544208e-07 -4.2136894e-09 
9.0689468e-08 8.3342506e-08 -1.1004750e-09 
7.3518507e-08 1.1041493e-07 -3.7242858e-09 
1.6293579e-07 1.5750884e-07 2.2333750e-10 
9.6443301e-08 1.5070069e-07 -4.2558925e-09 
1.3559210e-07 1.2233352e-07 1.1740130e-10 
2.5868792e-07 3.5239998e-07 -3.4432870e-09 
2.0256608e-07 2.6742180e-07 -2.9307277e-09 
5.8298703e-08 7.1677285e-08 -2.7608473e-09 
2.2019616e-07 2.5824073e-07 -1.0129898e-09 
1.5910020e-07 2.2049686e-07 -3.5410521e-09 
1.2129547e-07 1.8358054e-07 -4.2414445e-09 
7.1351344e-08 1.0794049e-07 -3.7293550e-09 
9.2298954e-08 8.2931422e-08 -9.5812369e-10 
1.8976986e-07 2.0099338e-07 -1.3060833e-10 
1.6157838e-07 1.5525306e-07 2.4822047e-10 
9.4089231e-08 1.4837069e-07 -4.2862665e-09 
2.5727206e-07 3.5065904e-07 -3.4595111e-09 
1.3381960e-07 1.1953064e-07 1.3263124e-10 
5.6268107e-08 6.8822565e-08 -2.7568365e-09 
1.5175094e-07 2.1351892e-07 -3.6870729e-09 
1.8457735e-07 1.9225259e-07 -5.3804138e-11 
6.9176814e-08 1.0546357e-07 -3.7713312e-09 
9.0335924e-08 8.0110183e-08 -9.7449782e-10 
1.1936754e-07 1.8167339e-07 -4.2803596e-09 
1.6021603e-07 1.5300316e-07 2.6317062e-10 
2.0091677e-07 2.6538228e-07 -2.9550127e-09 
9.1707037e-08 1.4599388e-07 -4.3182014e-09 
2.1852983e-07 2.5596262e-07 -9.9355735e-10 
1.3205430e-07 1.1672496e-07 1.2830691e-10 
2.5579138e-07 3.4884033e-07 -3.5200844e-09 
5.4191688e-08 6.6048777e-08 -2.7521390e-09 
9.3359006e-08 8.0953022e-08 -7.8748269e-10 
6.7023272e-08 1.0302133e-07 -3.7659191e-09 
1.5652704e-07 2.1752277e-07 -3.5748420e-09 
1.8779930e-07 1.9791122e-07 -1.0065704e-10 
1.1741137e-07 1.7975181e-07 -4.3115653e-09 
1.5881682e-07 1.5071831e-07 2.8861924e-10 
8.9323386e-08 1.4361922e-07 -4.3434558e-09 
5.2161997e-08 6.3267258e-08 -2.7415390e-09 
1.3025230e-07 1.1384441e-07 1.3196175e-10 
2.5419374e-07 3.4682421e-07 -3.5410090e-09 
1.4898829e-07 2.1035754e-07 -3.7206374e-09 
9.3278551e-08 7.9456768e-08 -6.9661488e-10 
6.4892966e-08 1.0056185e-07 -3.7405874e-09 
1.8246065e-07 1.8892355e-07 -3.0726685e-11 
1.9986484e-07 2.6400338e-07 -2.9681435e-09 
1.1549170e-07 1.7781180e-07 -4.3555226e-09 
2.1773945e-07 2.5566109e-07 -1.0171560e-09 
1.5742781e-07 1.4842979e-07 2.5882721e-10 
5.0186706e-08 6.0480815e-08 -2.7141867e-09 
8.6908344e-08 1.4122909e-07 -4.3861617e-09 
1.2841616e-07 1.1098521e-07 1.3092837e-10 
6.2753791e-08 9.8140923e-08 -3.7694532e-09 
9.1540024e-08 7.6801328e-08 -7.0166445e-10 
2.5255912e-07 3.4476253e-07 -3.5480880e-09 
1.5398075e-07 2.1448940e-07 -3.5912628e-09 
1.8579208e-07 1.9482636e-07 -6.8709767e-11 
1.1355417e-07 1.7586494e-07 -4.3490789e-09 
4.8191858e-08 5.7774269e-08 -2.7148890e-09 
1.5600749e-07 1.4611949e-07 2.5943558e-10 
8.4497422e-08 1.3879927e-07 -4.3968842e-09 
1.2657313e-07 1.0811488e-07 1.3014560e-10 
6.0671880e-08 9.5754984e-08 -3.7785002e-09 
8.7703413e-08 7.2630037e-08 -7.8373746e-10 
1.4627695e-07 2.0712405e-07 -3.7413774e-09 
1.8035782e-07 1.8559435e-07 5.1198542e-12 
4.6244800e-08 5.5102074e-08 -2.7073095e-09 
1.9664520e-07 2.5997679e-07 -2.9878993e-09 
1.1162643e-07 1.7391424e-07 -4.3464001e-09 
2.1462944e-07 2.5083139e-07 -9.9483832e-10 
1.5458663e-07 1.4384162e-07 2.5766370e-10 
2.5090696e-07 3.4261669e-07 -3.5514611e-09 
8.2080703e-08 1.3635326e-07 -4.4106154e-09 
1.2470079e-07 1.0522329e-07 1.2783280e-10 
5.8653825e-08 9.3434778e-08 -3.7720569e-09 
8.0831498e-08 6.6492490e-08 -9.9264874e-10 
1.5152301e-07 2.1147484e-07 -3.5940153e-09 
4.4312674e-08 5.2432000e-08 -2.7062399e-09 
1.8382261e-07 1.9183607e-07 -8.4849856e-11 
1.0971769e-07 1.7196159e-07 -4.3468682e-09 
1.5321163e-07 1.4157085e-07 2.6410371e-10 
5.6553375e-08 9.1056712e-08 -3.8049941e-09 
7.5703589e-08 6.1580515e-08 -1.1052549e-09 
7.9664872e-08 1.3390208e-07 -4.4308011e-09 
2.4919004e-07 3.4033147e-07 -3.5659775e-09 
1.2289455e-07 1.0237848e-07 1.4395631e-10 
1.4368551e-07 2.0397789e-07 -3.7388537e-09 
4.2285887e-08 4.9751431e-08 -2.7077043e-09 
1.7829716e-07 1.8239207e-07 -7.2683639e-12 
8.8863338e-08 1.1210081e-07 -2.6729385e-09 
1.9447818e-07 2.5717006e-07 -3.0039149e-09 
2.1262166e-07 2.4805820e-07 -1.0128693e-09 
1.0783879e-07 1.7003963e-07 -4.3616923e-09 
1.5183194e-07 1.3933285e-07 2.7092678e-10 
5.4433759e-08 8.8640363e-08 -3.7984638e-09 
7.6990240e-08 6.1058010e-08 -9.9863329e-10 
7.7233345e-08 1.3150489e-07 -4.4467559e-09 
1.2111011e-07 9.9494180e-08 1.3232113e-10 
4.0341106e-08 4.7070561e-08 -2.6859894e-09 
2.4747800e-07 3.3805767e-07 -3.5952170e-09 
1.4920950e-07 2.0854580e-07 -3.5928180e-09 
1.8191520e-07 1.8897629e-07 -1.1221490e-10 
8.0780204e-08 6.2506665e-08 -7.8043316e-10 
5.2462390e-08 8.6367479e-08 -3.7693564e-09 
1.0595620e-07 1.6809292e-07 -4.3688444e-09 
1.5044947e-07 1.3707512e-07 2.7885699e-10 
3.8495561e-08 4.4427640e-08 -2.6538185e-09 
7.4821379e-08 1.2903384e-07 -4.4713455e-09 
1.1921178e-07 9.6562502e-08 1.2357919e-10 
1.4121009e-07 2.0090437e-07 -3.7136358e-09 
1.9657062e-07 2.5942359e-07 -2.9707741e-09 
1.7626358e-07 1.7930523e-07 -5.1743786e-11 
2.1420357e-07 2.5283720e-07 -1.1760899e-09 
5.0464084e-08 8.4081954e-08 -3.8070938e-09 
7.3464200e-08 5.5915798e-08 -9.7930075e-10 
2.4585020e-07 3.3589060e-07 -3.6037449e-09 
1.0409584e-07 1.6612489e-07 -4.3921968e-09 
1.4907305e-07 1.3486277e-07 2.5756905e-10 
3.6640341e-08 4.1881904e-08 -2.6494895e-09 
7.2397064e-08 1.2654847e-07 -4.4593271e-09 
1.1733558e-07 9.3675247e-08 9.0808423e-11 
4.8540159e-08 8.1844675e-08 -3.7987999e-09 
7.1700768e-08 5.3399578e-08 -1.0338054e-09 
1.4703416e-07 2.0567589e-07 -3.5781162e-09 
1.8005737e-07 1.8627472e-07 -1.0947676e-10 
3.4758223e-08 3.9413482e-08 -2.6414471e-09 
1.0226087e-07 1.6417860e-07 -4.3775525e-09 
1.4770541e-07 1.3264665e-07 2.5916524e-10 
2.4425239e-07 3.3367925e-07 -3.5844503e-09 
6.9979308e-08 1.2410378e-07 -4.4189741e-09 
4.6606576e-08 7.9677982e-08 -3.7471675e-09 
6.9969289e-08 5.0899192e-08 -1.0065616e-09 
1.1551737e-07 9.0782386e-08 8.6322935e-11 
1.9584226e-07 2.5826259e-07 -2.9547282e-09 
1.3890298e-07 1.9783442e-07 -3.7254364e-09 
2.1324230e-07 2.5240345e-07 -1.2389709e-09 
1.7433391e-07 1.7634920e-07 -3.4412622e-11 
3.3002152e-08 3.6859596e-08 -2.6235913e-09 
1.0047763e-07 1.6229075e-07 -4.3824464e-09 
1.4632745e-07 1.3044441e-07 2.5205599e-10 
4.4735053e-08 7.7480173e-08 -3.7622998e-09 
6.8293012e-08 4.8454680e-08 -1.0454592e-09 
6.7635398e-08 1.2163085e-07 -4.4764348e-09 
1.1365616e-07 8.7966228e-08 6.2153831e-11 
2.4264310e-07 3.3142820e-07 -3.6089194e-09 
3.1195043e-08 3.4501749e-08 -2.6063693e-09 
1.4504823e-07 2.0289129e-07 -3.5426313e-09 
1.7827284e-07 1.8366519e-07 -1.7725972e-10 
4.2860581e-08 7.5347188e-08 -3.7706402e-09 
6.6637654e-08 4.6072032e-08 -1.0261823e-09 
9.8707268e-08 1.6029860e-07 -4.3922395e-09 
1.4500937e-07 1.2832643e-07 2.4040248e-10 
2.9518050e-08 3.2044216e-08 -2.6067180e-09 
6.5281824e-08 1.1919823e-07 -4.4075170e-09 
1.1178906e-07 8.5074468e-08 5.4373155e-11 
1.9534502e-07 2.5733198e-07 -2.9639782e-09 
2.1243956e-07 2.5221601e-07 -1.2918410e-09 
1.4414992e-07 2.0151242e-07 -3.5098273e-09 
2.4114797e-07 3.2929808e-07 -3.6159900e-09 
4.1116202e-08 7.3263131e-08 -3.7642089e-09 
6.5030285e-08 4.3741103e-08 -1.0943748e-09 
1.7738755e-07 1.8250029e-07 -1.4978012e-10 
9.7010286e-08 1.5845364e-07 -4.3463761e-09 
1.4368008e-07 1.2617367e-07 1.9487351e-10 
2.7765482e-08 2.9771225e-08 -2.5856710e-09 
6.2897044e-08 1.1670473e-07 -4.3948734e-09 
1.1003900e-07 8.2269793e-08 -2.2128408e-12 
3.9335006e-08 7.1294600e-08 -3.7099095e-09 
6.3431983e-08 4.1448587e-08 -1.0580922e-09 
1.4331556e-07 2.0019206e-07 -3.4847141e-09 
9.1746884e-08 8.9674415e-08 -1.4703693e-09 
1.7659065e-07 1.8140534e-07 -2.2780670e-10 
2.6101809e-08 2.7378553e-08 -2.5557052e-09 
2.3963480e-07 3.2700848e-07 -3.6243890e-09 
1.9051269e-07 2.5100420e-07 -2.9767673e-09 
9.5378901e-08 1.5659612e-07 -4.2885562e-09 
2.0743619e-07 2.4288013e-07 -1.1957367e-09 
1.4242995e-07 1.2421847e-07 1.6882466e-10 
3.7552951e-08 6.9228186e-08 -3.6401324e-09 
6.1819989e-08 3.9132107e-08 -1.0761827e-09 
6.0740334e-08 1.1441235e-07 -4.3254174e-09 
1.0823645e-07 7.9590244e-08 -7.8413762e-11 
2.4435517e-08 2.5192120e-08 -2.5301246e-09 
1.4259891e-07 1.9899701e-07 -3.5097834e-09 
1.7585099e-07 1.8036354e-07 -2.4070107e-10 
9.3829328e-08 1.5484844e-07 -4.2889461e-09 
3.5921488e-08 6.7324756e-08 -3.5884220e-09 
6.0385979e-08 3.7010253e-08 -1.0976804e-09 
1.4118011e-07 1.2225996e-07 1.7860670e-10 
2.3801711e-07 3.2482163e-07 -3.6917409e-09 
5.8471660e-08 1.1209520e-07 -4.3135828e-09 
2.2890339e-08 2.3072968e-08 -2.4934992e-09 
2.1482516e-07 2.5964175e-07 -1.7393398e-09 
2.0372487e-07 2.6759284e-07 -3.0249601e-09 
1.0648503e-07 7.6897670e-08 -9.1978536e-11 
1.4195518e-07 1.9790131e-07 -3.4416985e-09 
1.7514616e-07 1.7944244e-07 -3.1305616e-10 
3.4318028e-08 6.5473479e-08 -3.5613621e-09 
5.8939033e-08 3.4953811e-08 -1.1195967e-09 
9.2318658e-08 1.5311599e-07 -4.2864525e-09 
1.4004523e-07 1.2039531e-07 1.4709832e-10 
2.1353781e-08 2.1013470e-08 -2.4502855e-09 
2.3655886e-07 3.2256176e-07 -3.6506902e-09 
5.6249938e-08 1.0978955e-07 -4.3003046e-09 
1.0479368e-07 7.4247758e-08 -1.2804692e-10 
3.2674890e-08 6.3658824e-08 -3.5296981e-09 
5.7452702e-08 3.2921896e-08 -1.1295175e-09 
2.1360296e-07 2.5784749e-07 -1.7754673e-09 
2.0257247e-07 2.6587909e-07 -3.0228089e-09 
1.4100603e-07 1.9650209e-07 -3.3947254e-09 
1.7404993e-07 1.7784498e-07 -3.5968334e-10 
7.4891837e-08 8.0485414e-08 -2.0034241e-09 
1.9918046e-08 1.8955403e-08 -2.4306102e-09 
9.0201681e-08 1.5080886e-07 -4.2681565e-09 
1.3806505e-07 1.1733397e-07 4.9908369e-11 
3.0923299e-08 6.1216241e-08 -3.4627257e-09 
5.5569949e-08 3.0657532e-08 -1.2089938e-09 
5.4250751e-08 1.0758890e-07 -4.2079424e-09 
2.3524474e-07 3.2052267e-07 -3.5914680e-09 
1.0312458e-07 7.1812941e-08 -2.1221518e-10 
1.8491829e-08 1.7204489e-08 -2.4191662e-09 
1.3766451e-07 1.9283985e-07 -3.4177576e-09 
1.7127604e-07 1.7304431e-07 -3.3360370e-10 
2.1262468e-07 2.5646759e-07 -1.7498909e-09 
2.0168484e-07 2.6449766e-07 -2.9643803e-09 
7.2140459e-08 7.7029824e-08 -2.0235882e-09 
2.9322090e-08 5.8997689e-08 -3.3538290e-09 
8.7256645e-08 1.4765064e-07 -4.1997321e-09 
5.3814073e-08 2.8538746e-08 -1.2086904e-09 
1.3580828e-07 1.1380903e-07 -1.4005843e-11 
1.7263188e-08 1.5384138e-08 -2.3734308e-09 
5.2444225e-08 1.0560213e-07 -4.1710742e-09 
1.0156221e-07 6.9601377e-08 -2.5739555e-10 
2.3394939e-07 3.1841321e-07 -3.5723149e-09 
1.3356244e-07 1.8865308e-07 -3.4631051e-09 
1.6847862e-07 1.6822031e-07 -3.6589096e-10 
2.7674712e-08 5.6783719e-08 -3.3704886e-09 
5.2079297e-08 2.6505235e-08 -1.2394578e-09 
1.8549454e-07 2.4365633e-07 -2.9566829e-09 
2.0191149e-07 2.3471334e-07 -1.3331918e-09 
8.4508294e-08 1.4467832e-07 -4.1777914e-09 
1.3368189e-07 1.1045437e-07 -3.3355391e-11 
6.9400777e-08 7.3414306e-08 -1.9854920e-09 
1.6015269e-08 1.3731536e-08 -2.3803046e-09 
1.0010563e-07 6.7427180e-08 -2.4862012e-10 
5.0652439e-08 1.0360392e-07 -4.1230304e-09 
2.6205276e-08 5.4661914e-08 -3.3643190e-09 
5.0397905e-08 2.4565386e-08 -1.2363520e-09 
1.6579655e-07 1.6355355e-07 -3.4707615e-10 
1.2968970e-07 1.8465853e-07 -3.5358556e-09 
2.3270496e-07 3.1649233e-07 -3.5991530e-09 
1.4684458e-08 1.2089915e-08 -2.3727238e-09 
1.3158494e-07 1.0728576e-07 -3.2360024e-11 
8.1855291e-08 1.4189608e-07 -4.1730264e-09 
2.0009682e-07 2.6207346e-07 -3.0913960e-09 
2.0217757e-07 2.3608800e-07 -1.5461995e-09 
2.4631451e-08 5.2527998e-08 -3.2745915e-09 
4.7225665e-08 2.1446025e-08 -1.2436382e-09 
9.8824259e-08 6.5352594e-08 -2.1355777e-10 
4.8946500e-08 1.0193558e-07 -4.1179002e-09 
5.9056227e-08 6.3780291e-08 -2.0926110e-09 
1.3479135e-08 1.0333942e-08 -2.3020132e-09 
1.6313078e-07 1.5914766e-07 -4.4019061e-10 
1.4303407e-07 1.9632247e-07 -3.3883820e-09 
1.2957857e-07 1.0433170e-07 -1.3815843e-10 
7.9381252e-08 1.3918812e-07 -4.1594346e-09 
2.3160547e-08 5.0452929e-08 -3.2003322e-09 
2.3167644e-07 3.1486229e-07 -3.6084689e-09 
4.7108376e-08 2.0597319e-08 -1.2212540e-09 
7.8510020e-08 8.0444210e-08 -1.7861318e-09 
2.0108553e-07 2.3433842e-07 -1.4667999e-09 
1.2308825e-08 8.8058156e-09 -2.2811737e-09 
9.7388984e-08 6.3499307e-08 -3.2003775e-10 
4.7341455e-08 1.0012013e-07 -4.0350008e-09 
1.9931805e-07 2.6079229e-07 -3.0377061e-09 
1.6060497e-07 1.5489942e-07 -4.0766820e-10 
1.2245577e-07 1.7709853e-07 -3.5152583e-09 
2.1772674e-08 4.8522889e-08 -3.1931120e-09 
4.5635204e-08 1.8835914e-08 -1.2640758e-09 
1.2773090e-07 1.0151513e-07 -1.4244003e-10 
7.7050956e-08 1.3659498e-07 -4.0741535e-09 
6.3297392e-08 5.7813732e-08 -1.7123208e-09 
1.1211341e-08 7.3563355e-09 -2.2929079e-09 
2.3075458e-07 3.1339857e-07 -3.7715790e-09 
9.6193837e-08 6.1642154e-08 -3.0827929e-10 
4.5818481e-08 9.8508202e-08 -3.9535166e-09 
1.9320704e-07 2.1800329e-07 -1.2545319e-09 
1.7106331e-07 2.2525657e-07 -3.0761946e-09 
2.0464038e-08 4.6631175e-08 -3.1544705e-09 
1.5826589e-07 1.5092407e-07 -4.0075532e-10 
5.2735949e-08 2.3201896e-08 -1.0446205e-09 
1.1921017e-07 1.7377715e-07 -3.5580805e-09 
1.0106587e-08 5.9231735e-09 -2.2717606e-09 
1.2597222e-07 9.8836686e-08 -1.7536236e-10 
7.4804547e-08 1.3426282e-07 -3.9900754e-09 
4.2735063e-08 1.5475065e-08 -1.3027277e-09 
1.7444702e-08 4.0231814e-08 -3.0745950e-09 
9.5104028e-08 5.9985304e-08 -3.7363543e-10 
4.4426564e-08 9.6993965e-08 -3.9140797e-09 
2.2998505e-07 3.1192934e-07 -3.8101611e-09 
5.5455178e-08 6.4682887e-08 -2.2643583e-09 
1.5606453e-07 1.4716734e-07 -4.3664802e-10 
1.1600500e-07 1.7052149e-07 -3.5740113e-09 
9.0477412e-09 4.7078870e-09 -2.2711486e-09 
1.2421961e-07 9.6410218e-08 -2.4385657e-10 
1.9824532e-07 2.5866453e-07 -3.2107326e-09 
2.0871292e-07 2.5083065e-07 -2.0378228e-09 
5.0651476e-08 2.0663281e-08 -1.1459604e-09 
7.2696672e-08 1.3196460e-07 -3.8945456e-09 
2.0334509e-08 4.9228291e-08 -3.1664713e-09 
1.8023103e-07 1.9204245e-07 -9.5831743e-10 
1.5498837e-07 2.0674169e-07 -3.1662315e-09 
9.3924768e-08 5.8498809e-08 -4.7794063e-10 
4.3298670e-08 9.5536748e-08 -3.7967460e-09 
8.1335250e-09 3.5340433e-09 -2.2033768e-09 
1.5392060e-07 1.4362821e-07 -3.9259154e-10 
1.1306307e-07 1.6758267e-07 -3.5447905e-09 
2.2883144e-07 3.0982673e-07 -3.8477217e-09 
5.3215356e-08 2.2158691e-08 -1.0337384e-09 
1.9433987e-08 4.8499235e-08 -3.0953811e-09 
1.2265791e-07 9.4032430e-08 -2.6807603e-10 
7.0795380e-08 1.2983185e-07 -3.8897854e-09 
7.2852968e-09 2.3108349e-09 -2.1838711e-09 
1.9754640e-07 2.5738413e-07 -3.2401581e-09 
2.0786830e-07 2.4963805e-07 -2.1209052e-09 
9.2925895e-08 5.6983055e-08 -4.6539628e-10 
4.2191051e-08 9.4341232e-08 -3.7621981e-09 
1.5183176e-07 1.4015916e-07 -4.3100298e-10 
1.7835204e-08 4.5734211e-08 -3.0691685e-09 
1.0330795e-07 1.5880217e-07 -3.6799646e-09 
1.7760202e-07 1.8745978e-07 -1.0045924e-09 
5.1763635e-08 2.0386228e-08 -1.1103635e-09 
1.2107624e-07 9.1820567e-08 -3.5523559e-10 
6.9069259e-08 1.2777920e-07 -3.8638945e-09 
6.3593899e-09 1.2104669e-09 -2.1464455e-09 
2.2795203e-07 3.0798077e-07 -3.8246397e-09 
5.0072380e-08 5.6669755e-08 -2.2105120e-09 
9.1991737e-08 5.5724755e-08 -4.4880422e-10 
1.5618714e-07 2.0702262e-07 -3.1557021e-09 
1.3566354e-08 3.5145138e-08 -2.8180915e-09 
4.1096015e-08 9.3013632e-08 -3.7208636e-09 
3.7699007e-08 9.9466826e-09 -1.3307812e-09 
1.4985758e-07 1.3694371e-07 -4.3359175e-10 
1.9708354e-07 2.5635688e-07 -3.1573777e-09 
2.0730386e-07 2.4868518e-07 -2.0479736e-09 
1.0756419e-07 1.6185065e-07 -3.5907652e-09 
6.0566379e-08 2.7158285e-08 -9.7822339e-10 
5.5171498e-09 2.3535882e-10 -2.1184758e-09 
1.1968407e-07 8.9803628e-08 -3.6981623e-10 
6.7344814e-08 1.2587235e-07 -3.8051771e-09 
3.5555242e-08 8.1459159e-09 -1.3620196e-09 
1.3796702e-08 3.7073519e-08 -2.8036624e-09 
9.1123837e-08 5.4441642e-08 -4.9759741e-10 
4.0102478e-08 9.1989762e-08 -3.5795560e-09 
2.2715025e-07 3.0647615e-07 -3.8488750e-09 
1.4792857e-07 1.3387157e-07 -4.5797061e-10 
4.7928177e-09 -7.3797402e-10 -2.0972237e-09 
9.8498624e-08 1.5367947e-07 -3.6495287e-09 
5.1341615e-08 1.9098220e-08 -1.0803640e-09 
1.7829188e-07 1.8927791e-07 -1.1116135e-09 
1.1825468e-07 8.7822343e-08 -3.9129791e-10 
7.9444405e-08 7.7557033e-08 -1.6932311e-09 
1.6180906e-08 4.4520313e-08 -2.9394782e-09 
1.9680188e-07 2.5556625e-07 -3.2960326e-09 
6.5798048e-08 1.2406271e-07 -3.7922474e-09 
2.0692357e-07 2.4798365e-07 -2.1950137e-09 
9.0242033e-08 5.3418034e-08 -6.4090527e-10 
1.4959106e-07 1.9918187e-07 -3.1698839e-09 
4.0219290e-09 -1.5952161e-09 -2.0560045e-09 