# vtk DataFile Version 4.0
vtk output
ASCII
DATASET UNSTRUCTURED_GRID
POINTS 4496 float
-4.3633327e-01 9.6409470e-01 4.4200001e+01 
-4.3633258e-01 9.6409065e-01 4.4074627e+01 
-3.2152572e-01 9.1279918e-01 4.4200001e+01 
-3.8534868e-01 8.4052670e-01 4.4200001e+01 
-3.9589554e-01 8.5545403e-01 4.4010014e+01 
-3.2616228e-01 9.1667932e-01 4.4011734e+01 
-4.3633190e-01 9.6408653e-01 4.3948376e+01 
-2.1293370e-01 8.4677851e-01 4.4200001e+01 
-2.9042658e-01 7.3813015e-01 4.4200001e+01 
-2.1010752e-01 8.4669363e-01 4.4073502e+01 
-2.8908840e-01 7.3604190e-01 4.4072292e+01 
-3.9589015e-01 8.5505831e-01 4.3883316e+01 
-3.2487559e-01 9.1697580e-01 4.3885036e+01 
-2.0722924e-01 8.4660655e-01 4.3944645e+01 
-1.1981077e-01 7.7773046e-01 4.4200001e+01 
-2.8772619e-01 7.3391593e-01 4.3942276e+01 
-4.3633121e-01 9.6408242e-01 4.3821228e+01 
-1.9739023e-01 6.6468561e-01 4.4200001e+01 
-2.9444304e-01 7.8727525e-01 4.3879974e+01 
-8.7554991e-02 7.5255024e-01 4.4042213e+01 
-1.6445170e-01 6.4084798e-01 4.4041008e+01 
-3.2357255e-01 9.1726828e-01 4.3757431e+01 
-3.9587301e-01 8.5463828e-01 4.3755711e+01 
-2.0429766e-01 8.4651643e-01 4.3813354e+01 
-2.8633916e-01 7.3175091e-01 4.3809875e+01 
-2.6899619e-02 6.8901783e-01 4.4200001e+01 
-1.0567340e-01 7.7152997e-01 4.3875790e+01 
-4.3633053e-01 9.6407831e-01 4.3693161e+01 
-8.7133333e-02 5.9509218e-01 4.4200001e+01 
-1.8777622e-01 6.5475601e-01 4.3873402e+01 
-2.0131156e-01 8.4642249e-01 4.3679543e+01 
-3.2225290e-01 9.1755641e-01 4.3628902e+01 
-3.9584404e-01 8.5419410e-01 4.3627178e+01 
-1.0114321e-03 6.6670936e-01 4.3939713e+01 
-2.8492665e-01 7.2954547e-01 4.3675007e+01 
-1.0131179e-01 7.7015632e-01 4.3743176e+01 
-6.0682178e-02 5.7631296e-01 4.3938457e+01 
3.9444737e-02 6.2338209e-01 4.4053139e+01 
-1.8470748e-01 6.5131217e-01 4.3739727e+01 
-7.0938184e-03 5.4737431e-01 4.4052326e+01 
-4.3632981e-01 9.6407413e-01 4.3564159e+01 
7.6947339e-02 5.8804804e-01 4.4200001e+01 
-1.2721874e-02 6.8194175e-01 4.3817982e+01 
-7.7214435e-02 5.8474159e-01 4.3819649e+01 
4.0195532e-02 5.2425718e-01 4.4200001e+01 
-1.9826968e-01 8.4632379e-01 4.3543118e+01 
-9.6842363e-02 7.6872379e-01 4.3607994e+01 
-3.2091641e-01 9.1783977e-01 4.3499420e+01 
-3.9580306e-01 8.5372573e-01 4.3497700e+01 
-2.8348783e-01 7.2729832e-01 4.3537586e+01 
-1.8155001e-01 6.4778340e-01 4.3603539e+01 
1.5678726e-01 5.2239102e-01 4.4060219e+01 
1.0298219e-02 6.6009766e-01 4.3674484e+01 
1.3250886e-01 4.7546524e-01 4.4058990e+01 
-4.3632913e-01 9.6407002e-01 4.3434200e+01 
-5.0139543e-02 5.6696451e-01 4.3671154e+01 
1.3504514e-01 5.4209155e-01 4.3856747e+01 
1.0361936e-01 4.8715758e-01 4.3855240e+01 
2.0846681e-01 4.8028421e-01 4.4200001e+01 
1.9279444e-01 4.4799727e-01 4.4200001e+01 
-9.2261828e-02 7.6722860e-01 4.3470158e+01 
-1.4701239e-03 6.7547697e-01 4.3552124e+01 
-1.9517080e-01 8.4621930e-01 4.3403992e+01 
-3.1956279e-01 9.1811794e-01 4.3368977e+01 
-3.9574999e-01 8.5323322e-01 4.3367252e+01 
-1.7830023e-01 6.4416617e-01 4.3464752e+01 
-6.7131944e-02 5.7555372e-01 4.3547829e+01 
-2.8202194e-01 7.2500783e-01 4.3397518e+01 
-4.3632844e-01 9.6406585e-01 4.3303261e+01 
1.5138821e-01 5.3037512e-01 4.3609200e+01 
1.2119007e-01 4.7490793e-01 4.3606068e+01 
-8.7566733e-02 7.6566672e-01 4.3329563e+01 
-1.7495437e-01 6.4045686e-01 4.3323273e+01 
-3.1819177e-01 9.1839045e-01 4.3237537e+01 
-3.9568463e-01 8.5271639e-01 4.3235813e+01 
2.2269404e-02 6.5294570e-01 4.3398811e+01 
-1.9201367e-01 8.4610778e-01 4.3262066e+01 
-3.8899176e-02 5.5709696e-01 4.3393635e+01 
-2.8052819e-01 7.2267252e-01 4.3254715e+01 
3.7877345e-01 3.8273901e-01 4.4200001e+01 
-4.3632776e-01 9.6406174e-01 4.3171322e+01 
3.9241230e-01 3.7329337e-01 4.3965439e+01 
1.0283732e-02 6.6872352e-01 4.3271511e+01 
-5.6385640e-02 5.6585240e-01 4.3265472e+01 
-8.2753494e-02 7.6403379e-01 4.3186119e+01 
-4.0345609e-01 8.6371827e-01 4.3104889e+01 
-3.1680310e-01 9.1865683e-01 4.3105087e+01 
-1.7150842e-01 6.3665158e-01 4.3179005e+01 
-1.8879703e-01 8.4598809e-01 4.3117241e+01 
-2.7900568e-01 7.2029078e-01 4.3109074e+01 
4.0610775e-01 3.6380205e-01 4.3729839e+01 
1.6776134e-01 5.1882964e-01 4.3331150e+01 
-4.3632707e-01 9.6405768e-01 4.3038357e+01 
1.4031014e-01 4.6124566e-01 4.3307755e+01 
3.4952711e-02 6.4519531e-01 4.3111935e+01 
-7.7818394e-02 7.6232505e-01 4.3039719e+01 
-3.1539652e-01 9.1891652e-01 4.2971603e+01 
-3.9551663e-01 8.5160977e-01 4.2969879e+01 
-2.6899155e-02 5.4666573e-01 4.3105160e+01 
-1.6795819e-01 6.3274628e-01 4.3031849e+01 
-1.8551964e-01 8.4585863e-01 4.2969406e+01 
4.1985780e-01 3.5425979e-01 4.3493168e+01 
-2.7745360e-01 7.1786088e-01 4.2960495e+01 
-4.3632638e-01 9.6405357e-01 4.2904346e+01 
2.2723136e-02 6.6139150e-01 4.2979332e+01 
-4.4916678e-02 5.5559248e-01 4.2971806e+01 
-3.1397179e-01 9.1916907e-01 4.2837063e+01 
-3.9541367e-01 8.5101974e-01 4.2835335e+01 
-7.2757579e-02 7.6053542e-01 4.2890255e+01 
-1.6429928e-01 6.2873662e-01 4.2881699e+01 
1.8463810e-01 5.0694346e-01 4.3035332e+01 
-1.8218029e-01 8.4571803e-01 4.2818455e+01 
1.5503895e-01 4.5003417e-01 4.3027725e+01 
-2.7587104e-01 7.1538109e-01 4.2808868e+01 
4.3366045e-01 3.4466109e-01 4.3255390e+01 
-4.3632573e-01 9.6404958e-01 4.2769268e+01 
-3.8429454e-01 8.3484912e-01 4.2710606e+01 
-3.1252861e-01 9.1941386e-01 4.2701439e+01 
4.8404284e-02 6.3678014e-01 4.2813030e+01 
-1.4070326e-02 5.3562075e-01 4.2804932e+01 
-6.7567028e-02 7.5865942e-01 4.2737610e+01 
-1.6052702e-01 6.2461799e-01 4.2728443e+01 
-1.7877772e-01 8.4556442e-01 4.2664265e+01 
-4.3632504e-01 9.6404558e-01 4.2633099e+01 
-2.7425703e-01 7.1284944e-01 4.2654083e+01 
4.4751364e-01 3.3500037e-01 4.3016472e+01 
3.5901129e-02 6.5341437e-01 4.2674721e+01 
-3.7959340e-01 8.2794034e-01 4.2568317e+01 
-3.1106678e-01 9.1965032e-01 4.2564713e+01 
-3.2659348e-02 5.4472327e-01 4.2665997e+01 
2.0396979e-01 4.9291667e-01 4.2740131e+01 
-6.2242586e-02 7.5669110e-01 4.2581669e+01 
1.7765003e-01 4.3475360e-01 4.2732578e+01 
-1.5663649e-01 6.2038553e-01 4.2571964e+01 
-4.3632439e-01 9.6404165e-01 4.2495808e+01 
-1.7531081e-01 8.4539592e-01 4.2506718e+01 
-2.7261066e-01 7.1026409e-01 4.2496017e+01 
-3.0958602e-01 9.1987789e-01 4.2426853e+01 
-3.7859210e-01 8.2613736e-01 4.2421188e+01 
4.6141517e-01 3.2527190e-01 4.2776375e+01 
6.2686495e-02 6.2762415e-01 4.2501175e+01 
-3.3570320e-04 5.2390522e-01 4.2492062e+01 
-5.6779940e-02 7.5462401e-01 4.2422298e+01 
-4.3632373e-01 9.6403772e-01 4.2357380e+01 
-1.5262254e-01 6.1603409e-01 4.2412144e+01 
-1.7177837e-01 8.4521037e-01 4.2345684e+01 
-2.7093092e-01 7.0762289e-01 4.2334549e+01 
-3.0808610e-01 9.2009580e-01 4.2287842e+01 
-3.8275370e-01 8.3137155e-01 4.2275047e+01 
4.9876589e-02 6.4471585e-01 4.2356720e+01 
-1.9539909e-02 5.3318781e-01 4.2347118e+01 
-4.3632311e-01 9.6403396e-01 4.2217781e+01 
2.1959943e-01 4.8236796e-01 4.2385345e+01 
-5.1174615e-02 7.5245124e-01 4.2259373e+01 
1.9034323e-01 4.2346162e-01 4.2378918e+01 
-1.4847966e-01 6.1155808e-01 4.2248856e+01 
4.7536272e-01 3.1546980e-01 4.2535065e+01 
-1.6817927e-01 8.4500539e-01 4.2181026e+01 
-2.6921678e-01 7.0492369e-01 4.2169544e+01 
-3.0656675e-01 9.2030340e-01 4.2147648e+01 
-3.9470181e-01 8.4769493e-01 4.2145920e+01 
7.7868804e-02 6.1763972e-01 4.2175373e+01 
-4.3632248e-01 9.6403021e-01 4.2076988e+01 
1.4390758e-02 5.1145434e-01 4.2165581e+01 
-4.5421973e-02 7.5016522e-01 4.2092751e+01 
-1.4420210e-01 6.0695171e-01 4.2081959e+01 
-3.0502778e-01 9.2049998e-01 4.2006248e+01 
-4.0175444e-01 8.5747409e-01 4.2004128e+01 
-1.6451253e-01 8.4477836e-01 4.2012604e+01 
4.8935395e-01 3.0558801e-01 4.2292507e+01 
-2.6746723e-01 7.0216429e-01 4.2000870e+01 
6.4714879e-02 6.3520777e-01 4.2024277e+01 
-4.3632188e-01 9.6402657e-01 4.1934975e+01 
-5.4755262e-03 5.2092212e-01 4.2014156e+01 
-2.3078828e-01 8.1064087e-01 4.1931458e+01 
2.3550548e-01 4.7116494e-01 4.2073269e+01 
2.0610523e-01 4.1123796e-01 4.2066772e+01 
-3.9517213e-02 7.4775779e-01 4.1922287e+01 
-1.3978374e-01 6.0220873e-01 4.1911320e+01 
-3.0346894e-01 9.2068475e-01 4.1863613e+01 
-3.9432141e-01 8.4618556e-01 4.1861881e+01 
-1.6077711e-01 8.4452641e-01 4.1840263e+01 
-2.6568118e-01 6.9934219e-01 4.1828377e+01 
-4.3632129e-01 9.6402299e-01 4.1791718e+01 
5.0338638e-01 2.9562023e-01 4.2048656e+01 
9.4028555e-02 6.0672593e-01 4.1834507e+01 
3.0205652e-02 4.9819478e-01 4.1824417e+01 
-3.8116732e-01 8.2744831e-01 4.1725647e+01 
-3.0189002e-01 9.2085695e-01 4.1719719e+01 
-3.3455357e-02 7.4522001e-01 4.1747829e+01 
-1.3521814e-01 5.9732240e-01 4.1736786e+01 
-4.3632072e-01 9.6401960e-01 4.1647179e+01 
-1.5697217e-01 8.4424627e-01 4.1663853e+01 
-2.6385748e-01 6.9645494e-01 4.1651920e+01 
8.0488607e-02 6.2478805e-01 4.1676235e+01 
2.6870471e-01 4.4547972e-01 4.1752304e+01 
9.6269641e-03 5.0785345e-01 4.1665993e+01 
2.4764967e-01 3.8646612e-01 4.1743168e+01 
-3.0029076e-01 9.2101562e-01 4.1574532e+01 
-3.9388368e-01 8.4456980e-01 4.1572796e+01 
5.1745731e-01 2.8556010e-01 4.1803486e+01 
-2.7231261e-02 7.4254233e-01 4.1569210e+01 
-1.3049847e-01 5.9228569e-01 4.1558201e+01 
-4.3632016e-01 9.6401632e-01 4.1501339e+01 
-1.5309690e-01 8.4393430e-01 4.1483204e+01 
-2.6199502e-01 6.9349992e-01 4.1471333e+01 
-2.9867104e-01 9.2115986e-01 4.1428024e+01 
-3.9364263e-01 8.4372103e-01 4.1426289e+01 
1.1125199e-01 5.9476525e-01 4.1477348e+01 
4.7217656e-02 4.8404291e-01 4.1467384e+01 
-4.3631962e-01 9.6401310e-01 4.1354160e+01 
-2.0839609e-02 7.3971421e-01 4.1386261e+01 
-1.2561750e-01 5.8709091e-01 4.1375404e+01 
5.3156406e-01 2.7540097e-01 4.1556946e+01 
-1.4915068e-01 8.4358656e-01 4.1298138e+01 
-2.9703063e-01 9.2128879e-01 4.1280167e+01 
-3.9338648e-01 8.4284443e-01 4.1278431e+01 
-2.6009262e-01 6.9047421e-01 4.1286449e+01 
2.9365057e-01 4.2687622e-01 4.1391586e+01 
9.7278498e-02 6.1333776e-01 4.1311302e+01 
2.7470219e-01 3.6807936e-01 4.1382729e+01 
2.5872495e-02 4.9389899e-01 4.1301384e+01 
-4.3631911e-01 9.6401012e-01 4.1205620e+01 
-1.4274905e-02 7.3672432e-01 4.1198803e+01 
-1.2056758e-01 5.8173001e-01 4.1188221e+01 
-2.9536936e-01 9.2140132e-01 4.1130928e+01 
[...]
POINT_DATA 4496
FIELD FieldData 5
DISPLACEMENT 3 4496  float
7.7979043e-02 7.2945274e-02 -5.2486086e-04 
7.7601217e-02 7.2551183e-02 -5.2365981e-04 
7.8011625e-02 7.3018581e-02 -7.0994679e-04 
7.8058593e-02 7.2978348e-02 -2.9043856e-04 
7.7476449e-02 7.2374381e-02 -3.0372705e-04 
7.7441767e-02 7.2423823e-02 -7.0636428e-04 
7.7220768e-02 7.2154365e-02 -5.2244787e-04 
7.8053750e-02 7.3088042e-02 -8.3004235e-04 
7.8124285e-02 7.3039278e-02 -2.5502147e-04 
7.7672549e-02 7.2692193e-02 -8.3709706e-04 
7.7740736e-02 7.2638698e-02 -2.5128372e-04 
7.7094905e-02 7.1976162e-02 -3.0129627e-04 
7.7059776e-02 7.2026409e-02 -7.0997304e-04 
7.7284269e-02 7.2288968e-02 -8.4427377e-04 
7.8097910e-02 7.3147677e-02 -8.9398411e-04 
7.7350266e-02 7.2230905e-02 -2.4748925e-04 
7.6837637e-02 7.1754761e-02 -5.2122324e-04 
7.8171298e-02 7.3098883e-02 -3.0487328e-04 
7.7128097e-02 7.2030522e-02 -3.9426761e-04 
7.7638477e-02 7.2672330e-02 -9.1066497e-04 
7.7707343e-02 7.2620161e-02 -3.2781495e-04 
7.6675095e-02 7.1626186e-02 -7.1357598e-04 
7.6710649e-02 7.1575150e-02 -2.9883094e-04 
7.6888673e-02 7.1878128e-02 -8.5157482e-04 
7.6952629e-02 7.1815640e-02 -2.4362346e-04 
7.8154787e-02 7.3207304e-02 -8.9551206e-04 
7.7124752e-02 7.2137505e-02 -9.1405300e-04 
7.6451823e-02 7.1352325e-02 -5.1997631e-04 
7.8215763e-02 7.3169455e-02 -4.1874481e-04 
7.7193305e-02 7.2078377e-02 -2.9958339e-04 
7.6485515e-02 7.1459427e-02 -8.5899164e-04 
7.6287672e-02 7.1223088e-02 -7.1721774e-04 
7.6323666e-02 7.1171291e-02 -2.9633404e-04 
7.7384576e-02 7.2405584e-02 -9.0104149e-04 
7.6547593e-02 7.1392670e-02 -2.3969667e-04 
7.6725975e-02 7.1723394e-02 -9.2161738e-04 
7.7439442e-02 7.2364144e-02 -4.3703429e-04 
7.7754229e-02 7.2788186e-02 -8.8801573e-04 
7.6792605e-02 7.1660154e-02 -2.9676739e-04 
7.7801116e-02 7.2756402e-02 -5.0880801e-04 
7.6063208e-02 7.0947051e-02 -5.1872490e-04 
7.8219563e-02 7.3274016e-02 -8.9150365e-04 
7.7007897e-02 7.2015323e-02 -9.1242086e-04 
7.7075951e-02 7.1980067e-02 -4.1253355e-04 
7.8260988e-02 7.3250942e-02 -5.8019976e-04 
7.6074526e-02 7.1032576e-02 -8.6652488e-04 
7.6319523e-02 7.1301289e-02 -9.2928752e-04 
7.5897448e-02 7.0817105e-02 -7.2086096e-04 
7.5933881e-02 7.0764519e-02 -2.9375168e-04 
7.6134928e-02 7.0961744e-02 -2.3569967e-04 
7.6384410e-02 7.1234114e-02 -2.9392814e-04 
7.7840291e-02 7.2885722e-02 -9.2470419e-04 
7.6589383e-02 7.1578898e-02 -9.1186300e-04 
7.7867024e-02 7.2866634e-02 -7.0398097e-04 
7.5671792e-02 7.0538782e-02 -5.1744084e-04 
7.6639667e-02 7.1530521e-02 -4.3694259e-04 
7.7214301e-02 7.2231926e-02 -9.1910624e-04 
7.7245370e-02 7.2207481e-02 -6.5164297e-04 
7.8288659e-02 7.3358446e-02 -9.4960310e-04 
7.8309610e-02 7.3348626e-02 -8.0084003e-04 
7.5905137e-02 7.0870921e-02 -9.3707338e-04 
7.6210782e-02 7.1186662e-02 -9.2350022e-04 
7.5655460e-02 7.0597343e-02 -8.7418046e-04 
7.5504340e-02 7.0408136e-02 -7.2454213e-04 
7.5541243e-02 7.0354797e-02 -2.9115236e-04 
7.5968452e-02 7.0800021e-02 -2.9109410e-04 
7.6262474e-02 7.1132012e-02 -4.1155005e-04 
7.5714335e-02 7.0522584e-02 -2.3164287e-04 
7.5277470e-02 7.0127562e-02 -5.1615929e-04 
7.6475538e-02 7.1463861e-02 -9.2924817e-04 
7.6501973e-02 7.1435146e-02 -6.6378881e-04 
7.5482547e-02 7.0432037e-02 -9.4493473e-04 
7.5544454e-02 7.0357561e-02 -2.8822734e-04 
7.5108349e-02 6.9996178e-02 -7.2821259e-04 
7.5145714e-02 6.9942072e-02 -2.8851189e-04 
7.5763136e-02 7.0719838e-02 -9.2285255e-04 
7.5228028e-02 7.0153400e-02 -8.8193524e-04 
7.5809456e-02 7.0665292e-02 -4.3725909e-04 
7.5285569e-02 7.0074931e-02 -2.2751205e-04 
7.8350954e-02 7.3467515e-02 -1.1567842e-03 
7.4880205e-02 6.9713272e-02 -5.1487255e-04 
7.7649795e-02 7.2738446e-02 -1.1660126e-03 
7.5369477e-02 7.0312023e-02 -9.3501946e-04 
7.5417623e-02 7.0251375e-02 -4.1088022e-04 
7.5051479e-02 6.9984317e-02 -9.5290202e-04 
7.4744381e-02 6.9526002e-02 -2.9842136e-04 
7.4709326e-02 6.9581077e-02 -7.3193375e-04 
7.5112186e-02 6.9906518e-02 -2.8536600e-04 
7.4791953e-02 6.9700509e-02 -8.8979892e-04 
7.4848399e-02 6.9618523e-02 -2.2327618e-04 
7.6945439e-02 7.2006017e-02 -1.1752555e-03 
7.5644717e-02 7.0599921e-02 -9.3973125e-04 
7.4479908e-02 6.9295920e-02 -5.1357294e-04 
7.5611293e-02 7.0509285e-02 -6.7574676e-04 
7.4903652e-02 6.9826163e-02 -9.3398278e-04 
7.4611627e-02 6.9527492e-02 -9.6093951e-04 
7.4307367e-02 6.9162913e-02 -7.3561136e-04 
7.4345626e-02 6.9107294e-02 -2.8306479e-04 
7.4946664e-02 6.9766313e-02 -4.3802938e-04 
7.4671291e-02 6.9446534e-02 -2.8246964e-04 
7.4346915e-02 6.9238290e-02 -8.9775375e-04 
7.6237805e-02 7.1270019e-02 -1.1844971e-03 
7.4402422e-02 6.9152996e-02 -2.1900218e-04 
7.4076660e-02 6.8875358e-02 -5.1221374e-04 
7.4493892e-02 6.9401681e-02 -9.4664737e-04 
7.4539177e-02 6.9335952e-02 -4.1059000e-04 
7.3902287e-02 6.8741545e-02 -7.3935604e-04 
7.3941045e-02 6.8685211e-02 -2.8030641e-04 
7.4162677e-02 6.9061197e-02 -9.6906844e-04 
7.4221559e-02 6.8977386e-02 -2.7960102e-04 
7.4760638e-02 6.9680497e-02 -9.5050281e-04 
7.3892593e-02 6.8766423e-02 -9.0580055e-04 
7.4774258e-02 6.9638230e-02 -6.8236468e-04 
7.3947459e-02 6.8678170e-02 -2.1466914e-04 
7.5526856e-02 7.0530608e-02 -1.1938028e-03 
7.3670208e-02 6.8451710e-02 -5.1085604e-04 
7.3575921e-02 6.8301074e-02 -2.6190066e-04 
7.3494107e-02 6.8317026e-02 -7.4302766e-04 
7.4008577e-02 6.8895496e-02 -9.4520586e-04 
7.4049011e-02 6.8831295e-02 -4.3934883e-04 
7.3704287e-02 6.8585180e-02 -9.7726414e-04 
7.3762566e-02 6.8498701e-02 -2.7668118e-04 
7.3428735e-02 6.8284735e-02 -9.1393484e-04 
7.3260657e-02 6.8024792e-02 -5.0945207e-04 
7.3483072e-02 6.8193518e-02 -2.1022867e-04 
7.4812472e-02 6.9787569e-02 -1.2030094e-03 
7.3581569e-02 6.8453208e-02 -9.5833244e-04 
7.3152237e-02 6.7857951e-02 -2.5302617e-04 
7.3082745e-02 6.7889176e-02 -7.4666156e-04 
7.3624760e-02 6.8383388e-02 -4.1074224e-04 
7.3879920e-02 6.8764836e-02 -9.6197682e-04 
7.3236234e-02 6.8099059e-02 -9.8555628e-04 
7.3894300e-02 6.8724908e-02 -6.9990131e-04 
7.3294111e-02 6.8010196e-02 -2.7387636e-04 
7.2847933e-02 6.7594536e-02 -5.0796656e-04 
7.2954886e-02 6.7792729e-02 -9.2220254e-04 
7.3008984e-02 6.7698956e-02 -2.0573856e-04 
7.2668068e-02 6.7458026e-02 -7.5037993e-04 
7.2710864e-02 6.7397602e-02 -2.4906243e-04 
7.4094765e-02 6.9041230e-02 -1.2121499e-03 
7.3075376e-02 6.7925274e-02 -9.5643301e-04 
7.3114038e-02 6.7857787e-02 -4.4124239e-04 
7.2758056e-02 6.7602523e-02 -9.9380221e-04 
7.2431855e-02 6.7161031e-02 -5.0652347e-04 
7.2815746e-02 6.7511506e-02 -2.7098804e-04 
7.2470769e-02 6.7290097e-02 -9.3048898e-04 
7.2524868e-02 6.7194045e-02 -2.0116154e-04 
7.2250150e-02 6.7023553e-02 -7.5405167e-04 
7.2268225e-02 6.6937409e-02 -2.5162348e-04 
7.2629884e-02 6.7463875e-02 -9.6996117e-04 
7.2671898e-02 6.7391157e-02 -4.1135561e-04 
7.2012492e-02 6.6724189e-02 -5.0504459e-04 
7.2817899e-02 6.7660294e-02 -9.7268488e-04 
7.2269447e-02 6.7095228e-02 -1.0020897e-03 
7.2835937e-02 6.7622207e-02 -6.9967593e-04 
7.2327204e-02 6.7002393e-02 -2.6811979e-04 
7.3373489e-02 6.8291143e-02 -1.2211724e-03 
7.1975991e-02 6.6776484e-02 -9.3885016e-04 
7.2030313e-02 6.6678412e-02 -1.9650822e-04 
7.1828939e-02 6.6585757e-02 -7.5767760e-04 
7.1869999e-02 6.6525921e-02 -2.6559588e-04 
7.2101340e-02 6.6912837e-02 -9.6762128e-04 
7.1589746e-02 6.6283859e-02 -5.0357508e-04 
7.2139122e-02 6.6843234e-02 -4.4389328e-04 
7.1770012e-02 6.6576786e-02 -1.0104154e-03 
7.1828187e-02 6.6482410e-02 -2.6519701e-04 
7.1404114e-02 6.6144273e-02 -7.6143735e-04 
7.1437873e-02 6.6078030e-02 -2.7369874e-04 
7.1470149e-02 6.6251501e-02 -9.4726938e-04 
7.2648697e-02 6.7537457e-02 -1.2301307e-03 
7.1525127e-02 6.6151820e-02 -1.9169366e-04 
7.1636066e-02 6.6431120e-02 -9.8147138e-04 
7.1163327e-02 6.5839931e-02 -5.0212472e-04 
7.1677804e-02 6.6356644e-02 -4.1259491e-04 
7.1248278e-02 6.5956883e-02 -6.4039085e-04 
7.1885608e-02 6.6691168e-02 -9.8259025e-04 
7.1903862e-02 6.6652924e-02 -7.0625992e-04 
7.1259394e-02 6.6046871e-02 -1.0187818e-03 
7.1318202e-02 6.5951265e-02 -2.6226873e-04 
7.0975751e-02 6.5699220e-02 -7.6512393e-04 
7.1017705e-02 6.5637991e-02 -2.5945948e-04 
7.0952840e-02 6.5714844e-02 -9.5578143e-04 
7.1008772e-02 6.5613605e-02 -1.8678728e-04 
7.0733428e-02 6.5392360e-02 -5.0055893e-04 
7.1920492e-02 6.6780522e-02 -1.2390151e-03 
7.1083434e-02 6.5855220e-02 -9.7869814e-04 
7.1121335e-02 6.5784805e-02 -4.4729101e-04 
7.0620574e-02 6.5220676e-02 -2.3906569e-04 
7.0543967e-02 6.5250680e-02 -7.6869602e-04 
7.0737042e-02 6.5504842e-02 -1.0271623e-03 
7.0796780e-02 6.5408342e-02 -2.5930963e-04 
7.0300013e-02 6.4941138e-02 -4.9889169e-04 
7.0423640e-02 6.5165833e-02 -9.6433208e-04 
7.0480667e-02 6.5063491e-02 -1.8187657e-04 
7.0596814e-02 6.5351658e-02 -9.9276856e-04 
7.0936263e-02 6.5706149e-02 -9.9914928e-04 
7.0639260e-02 6.5276697e-02 -4.1447364e-04 
7.0945725e-02 6.5664895e-02 -7.5113727e-04 
7.0108421e-02 6.4798415e-02 -7.7235186e-04 
7.0151418e-02 6.4735837e-02 -2.5295539e-04 
7.1189016e-02 6.6020630e-02 -1.2477463e-03 
7.0202619e-02 6.4950392e-02 -1.0355246e-03 
7.0263632e-02 6.4853437e-02 -2.5649148e-04 
6.9862910e-02 6.4486422e-02 -4.9725559e-04 
6.9882043e-02 6.4604186e-02 -9.7282423e-04 
6.9940574e-02 6.4501174e-02 -1.7691479e-04 
6.9669314e-02 6.4342499e-02 -7.7588978e-04 
6.9712728e-02 6.4279377e-02 -2.4976392e-04 
7.0018224e-02 6.4748995e-02 -9.8948996e-04 
7.0057414e-02 6.4679287e-02 -4.5144794e-04 
6.9422007e-02 6.4028099e-02 -4.9566582e-04 
6.9655620e-02 6.4383142e-02 -1.0437734e-03 
6.9718219e-02 6.4286031e-02 -2.5353720e-04 
7.0453741e-02 6.5256789e-02 -1.2561735e-03 
6.9327645e-02 6.4029515e-02 -9.8131166e-04 
6.9226377e-02 6.3882969e-02 -7.7943201e-04 
6.9270164e-02 6.3819073e-02 -2.4636509e-04 
6.9388047e-02 6.3926071e-02 -1.7164547e-04 
6.9863938e-02 6.4593211e-02 -1.0127481e-03 
6.9508664e-02 6.4221881e-02 -1.0037628e-03 
6.9873847e-02 6.4554319e-02 -7.7216304e-04 
6.9553174e-02 6.4148150e-02 -4.1695687e-04 
6.8977393e-02 6.3565686e-02 -4.9399876e-04 
6.9095671e-02 6.3802555e-02 -1.0520715e-03 
6.9160007e-02 6.3705653e-02 -2.5060299e-04 
6.8779558e-02 6.3419290e-02 -7.8303640e-04 
6.8823934e-02 6.3354865e-02 -2.4303586e-04 
6.8759941e-02 6.3441113e-02 -9.8992907e-04 
6.8822503e-02 6.3337825e-02 -1.6641298e-04 
6.9714844e-02 6.4489603e-02 -1.2645152e-03 
6.8528756e-02 6.3099571e-02 -4.9234100e-04 
6.8902105e-02 6.3590549e-02 -9.9997444e-04 
6.8943650e-02 6.3522972e-02 -4.5661238e-04 
6.8328805e-02 6.2951878e-02 -7.8661519e-04 
6.8373606e-02 6.2886752e-02 -2.3956265e-04 
6.8521999e-02 6.3207954e-02 -1.0602030e-03 
6.8588726e-02 6.3111909e-02 -2.4773643e-04 
6.8076275e-02 6.2629364e-02 -4.9056567e-04 
6.8178400e-02 6.2838636e-02 -9.9833577e-04 
6.8243384e-02 6.2735796e-02 -1.6098162e-04 
6.8740018e-02 6.3427575e-02 -1.0271491e-03 
6.8751663e-02 6.3392580e-02 -7.9531182e-04 
6.8323597e-02 6.2990390e-02 -1.0048434e-03 
6.8972446e-02 6.3719258e-02 -1.2726621e-03 
6.7874171e-02 6.2480401e-02 -7.8998000e-04 
6.7919433e-02 6.2414847e-02 -2.3623488e-04 
6.8366826e-02 6.2924810e-02 -4.5947119e-04 
6.7934424e-02 6.2599160e-02 -1.0682194e-03 
6.8003580e-02 6.2504165e-02 -2.4485885e-04 
6.7619674e-02 6.2155500e-02 -4.8884383e-04 
6.7582279e-02 6.2221441e-02 -1.0068192e-03 
6.7650527e-02 6.2119666e-02 -1.5549606e-04 
6.7415461e-02 6.2005315e-02 -7.9332228e-04 
6.7461051e-02 6.1938930e-02 -2.3265545e-04 
6.7730881e-02 6.2375743e-02 -1.0097059e-03 
6.7447327e-02 6.1963804e-02 -4.2654481e-04 
6.7776203e-02 6.2312569e-02 -4.6278085e-04 
6.7159072e-02 6.1677389e-02 -4.8696436e-04 
6.8225905e-02 6.2944494e-02 -1.2804528e-03 
6.7810193e-02 6.2461954e-02 -1.0295572e-03 
6.7332134e-02 6.1975468e-02 -1.0758722e-03 
6.7832001e-02 6.2431585e-02 -7.6626107e-04 
6.7404345e-02 6.1882298e-02 -2.4195867e-04 
6.6952519e-02 6.1525740e-02 -7.9651800e-04 
6.6998594e-02 6.1458949e-02 -2.2908737e-04 
6.6971689e-02 6.1589431e-02 -1.0148584e-03 
6.7042924e-02 6.1489027e-02 -1.5016098e-04 
6.6694289e-02 6.1195467e-02 -4.8521371e-04 
6.7123398e-02 6.1746124e-02 -1.0144629e-03 
6.7171104e-02 6.1685774e-02 -4.6623533e-04 
6.6714779e-02 6.1336488e-02 -1.0836030e-03 
6.6485614e-02 6.1042268e-02 -7.9981290e-04 
6.6532098e-02 6.0974933e-02 -2.2543597e-04 
6.6790223e-02 6.1245453e-02 -2.3896288e-04 
6.7475386e-02 6.2166750e-02 -1.2882344e-03 
6.6345245e-02 6.0941551e-02 -1.0232365e-03 
6.6225290e-02 6.0709249e-02 -4.8332495e-04 
6.7022242e-02 6.1612591e-02 -8.7085896e-04 
6.6997364e-02 6.1627064e-02 -1.0721949e-03 
6.6420339e-02 6.0843147e-02 -1.4426073e-04 
6.6500455e-02 6.1100952e-02 -1.0188492e-03 
6.6550836e-02 6.1043728e-02 -4.7012663e-04 
6.6014238e-02 6.0554542e-02 -8.0311921e-04 
6.6061132e-02 6.0486685e-02 -2.2173821e-04 
6.6081464e-02 6.0681358e-02 -1.0911418e-03 
6.6160835e-02 6.0593061e-02 -2.3605597e-04 
6.5751754e-02 6.0218684e-02 -4.8138225e-04 
6.6721246e-02 6.1385270e-02 -1.2953673e-03 
6.5702394e-02 6.0277127e-02 -1.0315009e-03 
6.5781966e-02 6.0181256e-02 -1.3822502e-04 
6.5538660e-02 6.0062885e-02 -8.0589909e-04 
6.5585889e-02 5.9994403e-02 -2.1818480e-04 
6.6266447e-02 6.0830090e-02 -8.7601156e-04 
6.6241905e-02 6.0844965e-02 -1.0789054e-03 
6.5850906e-02 6.0428750e-02 -1.0233459e-03 
6.5898843e-02 6.0368810e-02 -4.7051106e-04 
6.5464534e-02 5.9930481e-02 -5.2751380e-04 
6.5274656e-02 5.9724677e-02 -4.7933395e-04 
6.5436125e-02 6.0014401e-02 -1.0987982e-03 
6.5522850e-02 5.9931576e-02 -2.2893387e-04 
6.5062612e-02 5.9569918e-02 -8.0436334e-04 
6.5109856e-02 5.9501991e-02 -2.1638395e-04 
6.5054387e-02 5.9607718e-02 -1.0389586e-03 
6.5963410e-02 6.0600735e-02 -1.3021578e-03 
6.5145105e-02 5.9521817e-02 -1.3257496e-04 
6.4800963e-02 5.9234865e-02 -4.7751080e-04 
6.5186709e-02 5.9742399e-02 -1.0303821e-03 
6.5253444e-02 5.9698109e-02 -4.5554226e-04 
6.5509081e-02 6.0046941e-02 -8.8218832e-04 
6.5484926e-02 6.0062073e-02 -1.0856310e-03 
6.4831428e-02 5.9275415e-02 -5.2544189e-04 
6.4590208e-02 5.9081227e-02 -8.0262631e-04 
6.4792164e-02 5.9349380e-02 -1.1066162e-03 
6.4637162e-02 5.9013255e-02 -2.1443020e-04 
6.4890176e-02 5.9275907e-02 -2.1977816e-04 
6.4330854e-02 5.8748540e-02 -4.7540147e-04 
6.4417899e-02 5.8950726e-02 -1.0460132e-03 
6.4518422e-02 5.8873627e-02 -1.2703839e-04 
6.5205157e-02 5.9816342e-02 -1.3086458e-03 
6.4546809e-02 5.9082191e-02 -1.0385613e-03 
6.4625278e-02 5.9045702e-02 -4.3980940e-04 
6.4120792e-02 5.8595829e-02 -8.0106442e-04 
6.4167760e-02 5.8528364e-02 -2.1254930e-04 
6.4688861e-02 5.9231870e-02 -1.0533932e-03 
6.4725637e-02 5.9216056e-02 -7.7831576e-04 
6.4159535e-02 5.8696680e-02 -1.1140325e-03 
6.4267382e-02 5.8630828e-02 -2.1079456e-04 
6.4049490e-02 5.8467064e-02 -5.2196154e-04 
6.3863873e-02 5.8266185e-02 -4.7346693e-04 
6.3901581e-02 5.8235917e-02 -1.2138999e-04 
6.3792072e-02 5.8305208e-02 -1.0525866e-03 
6.3654944e-02 5.8114301e-02 -7.9919462e-04 
6.3701682e-02 5.8047321e-02 -2.1070099e-04 
6.4006783e-02 5.8403973e-02 -4.2448111e-04 
6.3917868e-02 5.8433764e-02 -1.0467430e-03 
6.4447992e-02 5.9034143e-02 -1.3148785e-03 
6.3399941e-02 5.7787407e-02 -4.7162524e-04 
6.3654162e-02 5.7996366e-02 -2.0202470e-04 
6.3537478e-02 5.8055595e-02 -1.1210429e-03 
6.3972965e-02 5.8500923e-02 -1.0988173e-03 
6.3922584e-02 5.8390297e-02 -7.9832471e-04 
6.3192062e-02 5.7636388e-02 -7.9719065e-04 
6.3227646e-02 5.7559218e-02 -2.1426773e-04 
6.3294291e-02 5.7608303e-02 -1.1541737e-04 
6.3176870e-02 5.7671517e-02 -1.0590989e-03 
6.3060507e-02 5.7450093e-02 -5.3877872e-04 
6.2939204e-02 5.7311736e-02 -4.6948693e-04 
6.3397422e-02 5.7772473e-02 -4.0990263e-04 
6.3250221e-02 5.7741664e-02 -1.0338519e-03 
6.3050002e-02 5.7372198e-02 -1.9385603e-04 
6.2925972e-02 5.7425510e-02 -1.1275803e-03 
6.2732205e-02 5.7161603e-02 -7.9494977e-04 
6.3692503e-02 5.8254741e-02 -1.3209289e-03 
6.2778592e-02 5.7095177e-02 -2.0677788e-04 
6.2750421e-02 5.7123736e-02 -5.0404685e-04 
6.3231371e-02 5.7677202e-02 -7.9985242e-04 
6.2481519e-02 5.6839883e-02 -4.6751241e-04 
6.2695473e-02 5.6990981e-02 -1.1041635e-04 
6.2571757e-02 5.7048231e-02 -1.0646570e-03 
6.3218504e-02 5.7723135e-02 -1.1045287e-03 
6.2797368e-02 5.7151388e-02 -3.9534000e-04 
6.2691621e-02 5.7170801e-02 -1.0618614e-03 
6.2275473e-02 5.6690607e-02 -7.9293165e-04 
6.2321816e-02 5.6624517e-02 -2.0489062e-04 
6.2455069e-02 5.6758013e-02 -1.8544956e-04 
6.2324528e-02 5.6806281e-02 -1.1334704e-03 
6.2166251e-02 5.6508105e-02 -4.3110273e-04 
6.2026717e-02 5.6371387e-02 -4.6555529e-04 
6.2937669e-02 5.7476740e-02 -1.3265404e-03 
6.2105902e-02 5.6383133e-02 -1.0473240e-04 
6.1976351e-02 5.6435775e-02 -1.0700367e-03 
6.2532917e-02 5.6941185e-02 -7.1893289e-04 
6.2451527e-02 5.6920197e-02 -1.0450501e-03 
6.1821613e-02 5.6222919e-02 -7.9062616e-04 
6.2206242e-02 5.6539811e-02 -3.8136987e-04 
6.1833922e-02 5.6116529e-02 -1.7320136e-04 
6.2093638e-02 5.6555878e-02 -1.0692405e-03 
6.1574623e-02 5.5906024e-02 -4.6366666e-04 
6.1868690e-02 5.6153059e-02 -1.7713709e-04 
6.1732657e-02 5.6197736e-02 -1.1389398e-03 
6.1416667e-02 5.5693068e-02 -2.0119330e-04 
6.1360553e-02 5.5742137e-02 -7.5685116e-04 
6.1524853e-02 5.5784632e-02 -9.9326076e-05 
6.1390251e-02 5.5833399e-02 -1.0750211e-03 
6.2183775e-02 5.6700062e-02 -1.3312096e-03 
6.1291389e-02 5.5640224e-02 -5.9754134e-04 
6.1623696e-02 5.5938061e-02 -3.6785309e-04 
6.1504859e-02 5.5950932e-02 -1.0763154e-03 
6.1125536e-02 5.5444300e-02 -4.6187942e-04 
6.1290607e-02 5.5557903e-02 -1.6948993e-04 
6.1712563e-02 5.6172337e-02 -1.1146822e-03 
6.1734822e-02 5.6156315e-02 -9.1115048e-04 
6.1042167e-02 5.5302102e-02 -1.6809284e-04 
6.1149877e-02 5.5598699e-02 -1.1438623e-03 
6.0967170e-02 5.5350814e-02 -8.2628941e-04 
6.1518479e-02 5.5871952e-02 -5.8911974e-04 
6.1401054e-02 5.5836339e-02 -1.0364170e-03 
6.0951672e-02 5.5195317e-02 -9.4278301e-05 
6.0813919e-02 5.5241000e-02 -1.0787582e-03 
6.0679562e-02 5.4985818e-02 -4.5984084e-04 
6.1049350e-02 5.5345248e-02 -3.5462031e-04 
6.0925797e-02 5.5356465e-02 -1.0828769e-03 
6.1430205e-02 5.5924177e-02 -1.3354063e-03 
6.0552951e-02 5.4797493e-02 -1.5428646e-04 
6.0475994e-02 5.4847091e-02 -8.3053106e-04 
6.0720906e-02 5.4971177e-02 -1.6183153e-04 
6.0576633e-02 5.5010185e-02 -1.1486346e-03 
6.0236398e-02 5.4530352e-02 -4.5780154e-04 
6.0960844e-02 5.5399593e-02 -1.1187972e-03 
6.0982600e-02 5.5383507e-02 -9.1562112e-04 
6.0386874e-02 5.4614440e-02 -8.8742527e-05 
6.0246274e-02 5.4658711e-02 -1.0827458e-03 
6.0482986e-02 5.4761302e-02 -3.4183590e-04 
6.0000006e-02 5.4356463e-02 -8.2030386e-04 
6.0288239e-02 5.4705121e-02 -1.1029304e-03 
6.0490750e-02 5.4813225e-02 -5.7360437e-04 
5.9990250e-02 5.4219529e-02 -1.5090485e-04 
6.0158893e-02 5.4393370e-02 -1.5441736e-04 
6.0012277e-02 5.4430913e-02 -1.1526750e-03 
5.9795592e-02 5.4078095e-02 -4.5579119e-04 
6.0678311e-02 5.5150885e-02 -1.3388349e-03 
5.9734441e-02 5.4037467e-02 -5.7514058e-04 
5.9829678e-02 5.4042619e-02 -8.3500359e-05 
6.0133014e-02 5.4533657e-02 -1.0395523e-03 
5.9600472e-02 5.3934000e-02 -7.5280439e-04 
5.9687145e-02 5.4085009e-02 -1.0862650e-03 
5.9640814e-02 5.3869795e-02 -1.9392316e-04 
5.9924442e-02 5.4186136e-02 -3.2929715e-04 
6.0210519e-02 5.4629043e-02 -1.1221134e-03 
6.0231928e-02 5.4612894e-02 -9.1918331e-04 
5.9794065e-02 5.4195840e-02 -1.0949201e-03 
5.9489258e-02 5.3701375e-02 -1.2340758e-04 
5.9357658e-02 5.3629056e-02 -4.5388797e-04 
5.9604671e-02 5.3824205e-02 -1.4676760e-04 
5.9456181e-02 5.3860843e-02 -1.1563709e-03 
5.9268467e-02 5.3489253e-02 -1.9768809e-04 
5.9158623e-02 5.3484954e-02 -7.7397004e-04 
5.9280038e-02 5.3478520e-02 -7.8341720e-05 
5.9136275e-02 5.3520903e-02 -1.0892141e-03 
5.9927363e-02 5.4379877e-02 -1.3419366e-03 
5.9373237e-02 5.3619228e-02 -3.1713306e-04 
5.8922406e-02 5.3182930e-02 -4.5186115e-04 
5.9175711e-02 5.3565081e-02 -1.1132242e-03 
5.8918353e-02 5.3119652e-02 -1.3815830e-04 
5.9384316e-02 5.3681858e-02 -5.9254002e-04 
5.9057679e-02 5.3262953e-02 -1.3963385e-04 
5.8943510e-02 5.3208109e-02 -4.7323538e-04 
5.8757000e-02 5.3084455e-02 -8.3267078e-04 
5.9461202e-02 5.3860571e-02 -1.1253001e-03 
5.8908395e-02 5.3299654e-02 -1.1597218e-03 
5.9482228e-02 5.3844396e-02 -9.2272460e-04 
5.8737509e-02 5.2922998e-02 -7.3591269e-05 
5.9025716e-02 5.3397402e-02 -1.0389185e-03 