# vtk DataFile Version 4.0
vtk output
ASCII
DATASET UNSTRUCTURED_GRID
POINTS 4496 float
-4.3633327e-01 9.6409470e-01 4.4200001e+01 
-4.3633258e-01 9.6409065e-01 4.4074627e+01 
-3.2152572e-01 9.1279918e-01 4.4200001e+01 
-3.8534868e-01 8.4052670e-01 4.4200001e+01 
-3.9589554e-01 8.5545403e-01 4.4010014e+01 
-3.2616228e-01 9.1667932e-01 4.4011734e+01 
-4.3633190e-01 9.6408653e-01 4.3948376e+01 
-2.1293370e-01 8.4677851e-01 4.4200001e+01 
-2.9042658e-01 7.3813015e-01 4.4200001e+01 
-2.1010752e-01 8.4669363e-01 4.4073502e+01 
-2.8908840e-01 7.3604190e-01 4.4072292e+01 
-3.9589015e-01 8.5505831e-01 4.3883316e+01 
-3.2487559e-01 9.1697580e-01 4.3885036e+01 
-2.0722924e-01 8.4660655e-01 4.3944645e+01 
-1.1981077e-01 7.7773046e-01 4.4200001e+01 
-2.8772619e-01 7.3391593e-01 4.3942276e+01 
-4.3633121e-01 9.6408242e-01 4.3821228e+01 
-1.9739023e-01 6.6468561e-01 4.4200001e+01 
-2.9444304e-01 7.8727525e-01 4.3879974e+01 
-8.7554991e-02 7.5255024e-01 4.4042213e+01 
-1.6445170e-01 6.4084798e-01 4.4041008e+01 
-3.2357255e-01 9.1726828e-01 4.3757431e+01 
-3.9587301e-01 8.5463828e-01 4.3755711e+01 
-2.0429766e-01 8.4651643e-01 4.3813354e+01 
-2.8633916e-01 7.3175091e-01 4.3809875e+01 
-2.6899619e-02 6.8901783e-01 4.4200001e+01 
-1.0567340e-01 7.7152997e-01 4.3875790e+01 
-4.3633053e-01 9.6407831e-01 4.3693161e+01 
-8.7133333e-02 5.9509218e-01 4.4200001e+01 
-1.8777622e-01 6.5475601e-01 4.3873402e+01 
-2.0131156e-01 8.4642249e-01 4.3679543e+01 
-3.2225290e-01 9.1755641e-01 4.3628902e+01 
-3.9584404e-01 8.5419410e-01 4.3627178e+01 
-1.0114321e-03 6.6670936e-01 4.3939713e+01 
-2.8492665e-01 7.2954547e-01 4.3675007e+01 
-1.0131179e-01 7.7015632e-01 4.3743176e+01 
-6.0682178e-02 5.7631296e-01 4.3938457e+01 
3.9444737e-02 6.2338209e-01 4.4053139e+01 
-1.8470748e-01 6.5131217e-01 4.3739727e+01 
-7.0938184e-03 5.4737431e-01 4.4052326e+01 
-4.3632981e-01 9.6407413e-01 4.3564159e+01 
7.6947339e-02 5.8804804e-01 4.4200001e+01 
-1.2721874e-02 6.8194175e-01 4.3817982e+01 
-7.7214435e-02 5.8474159e-01 4.3819649e+01 
4.0195532e-02 5.2425718e-01 4.4200001e+01 
-1.9826968e-01 8.4632379e-01 4.3543118e+01 
-9.6842363e-02 7.6872379e-01 4.3607994e+01 
-3.2091641e-01 9.1783977e-01 4.3499420e+01 
-3.9580306e-01 8.5372573e-01 4.3497700e+01 
-2.8348783e-01 7.2729832e-01 4.3537586e+01 
-1.8155001e-01 6.4778340e-01 4.3603539e+01 
1.5678726e-01 5.2239102e-01 4.4060219e+01 
1.0298219e-02 6.6009766e-01 4.3674484e+01 
1.3250886e-01 4.7546524e-01 4.4058990e+01 
-4.3632913e-01 9.6407002e-01 4.3434200e+01 
-5.0139543e-02 5.6696451e-01 4.3671154e+01 
1.3504514e-01 5.4209155e-01 4.3856747e+01 
1.0361936e-01 4.8715758e-01 4.3855240e+01 
2.0846681e-01 4.8028421e-01 4.4200001e+01 
1.9279444e-01 4.4799727e-01 4.4200001e+01 
-9.2261828e-02 7.6722860e-01 4.3470158e+01 
-1.4701239e-03 6.7547697e-01 4.3552124e+01 
-1.9517080e-01 8.4621930e-01 4.3403992e+01 
-3.1956279e-01 9.1811794e-01 4.3368977e+01 
-3.9574999e-01 8.5323322e-01 4.3367252e+01 
-1.7830023e-01 6.4416617e-01 4.3464752e+01 
-6.7131944e-02 5.7555372e-01 4.3547829e+01 
-2.8202194e-01 7.2500783e-01 4.3397518e+01 
-4.3632844e-01 9.6406585e-01 4.3303261e+01 
1.5138821e-01 5.3037512e-01 4.3609200e+01 
1.2119007e-01 4.7490793e-01 4.3606068e+01 
-8.7566733e-02 7.6566672e-01 4.3329563e+01 
-1.7495437e-01 6.4045686e-01 4.3323273e+01 
-3.1819177e-01 9.1839045e-01 4.3237537e+01 
-3.9568463e-01 8.5271639e-01 4.3235813e+01 
2.2269404e-02 6.5294570e-01 4.3398811e+01 
-1.9201367e-01 8.4610778e-01 4.3262066e+01 
-3.8899176e-02 5.5709696e-01 4.3393635e+01 
-2.8052819e-01 7.2267252e-01 4.3254715e+01 
3.7877345e-01 3.8273901e-01 4.4200001e+01 
-4.3632776e-01 9.6406174e-01 4.3171322e+01 
3.9241230e-01 3.7329337e-01 4.3965439e+01 
1.0283732e-02 6.6872352e-01 4.3271511e+01 
-5.6385640e-02 5.6585240e-01 4.3265472e+01 
-8.2753494e-02 7.6403379e-01 4.3186119e+01 
-4.0345609e-01 8.6371827e-01 4.3104889e+01 
-3.1680310e-01 9.1865683e-01 4.3105087e+01 
-1.7150842e-01 6.3665158e-01 4.3179005e+01 
-1.8879703e-01 8.4598809e-01 4.3117241e+01 
-2.7900568e-01 7.2029078e-01 4.3109074e+01 
4.0610775e-01 3.6380205e-01 4.3729839e+01 
1.6776134e-01 5.1882964e-01 4.3331150e+01 
-4.3632707e-01 9.6405768e-01 4.3038357e+01 
1.4031014e-01 4.6124566e-01 4.3307755e+01 
3.4952711e-02 6.4519531e-01 4.3111935e+01 
-7.7818394e-02 7.6232505e-01 4.3039719e+01 
-3.1539652e-01 9.1891652e-01 4.2971603e+01 
-3.9551663e-01 8.5160977e-01 4.2969879e+01 
-2.6899155e-02 5.4666573e-01 4.3105160e+01 
-1.6795819e-01 6.3274628e-01 4.3031849e+01 
-1.8551964e-01 8.4585863e-01 4.2969406e+01 
4.1985780e-01 3.5425979e-01 4.3493168e+01 
-2.7745360e-01 7.1786088e-01 4.2960495e+01 
-4.3632638e-01 9.6405357e-01 4.2904346e+01 
2.2723136e-02 6.6139150e-01 4.2979332e+01 
-4.4916678e-02 5.5559248e-01 4.2971806e+01 
-3.1397179e-01 9.1916907e-01 4.2837063e+01 
-3.9541367e-01 8.5101974e-01 4.2835335e+01 
-7.2757579e-02 7.6053542e-01 4.2890255e+01 
-1.6429928e-01 6.2873662e-01 4.2881699e+01 
1.8463810e-01 5.0694346e-01 4.3035332e+01 
-1.8218029e-01 8.4571803e-01 4.2818455e+01 
1.5503895e-01 4.5003417e-01 4.3027725e+01 
-2.7587104e-01 7.1538109e-01 4.2808868e+01 
4.3366045e-01 3.4466109e-01 4.3255390e+01 
-4.3632573e-01 9.6404958e-01 4.2769268e+01 
-3.8429454e-01 8.3484912e-01 4.2710606e+01 
-3.1252861e-01 9.1941386e-01 4.2701439e+01 
4.8404284e-02 6.3678014e-01 4.2813030e+01 
-1.4070326e-02 5.3562075e-01 4.2804932e+01 
-6.7567028e-02 7.5865942e-01 4.2737610e+01 
-1.6052702e-01 6.2461799e-01 4.2728443e+01 
-1.7877772e-01 8.4556442e-01 4.2664265e+01 
-4.3632504e-01 9.6404558e-01 4.2633099e+01 
-2.7425703e-01 7.1284944e-01 4.2654083e+01 
4.4751364e-01 3.3500037e-01 4.3016472e+01 
3.5901129e-02 6.5341437e-01 4.2674721e+01 
-3.7959340e-01 8.2794034e-01 4.2568317e+01 
-3.1106678e-01 9.1965032e-01 4.2564713e+01 
-3.2659348e-02 5.4472327e-01 4.2665997e+01 
2.0396979e-01 4.9291667e-01 4.2740131e+01 
-6.2242586e-02 7.5669110e-01 4.2581669e+01 
1.7765003e-01 4.3475360e-01 4.2732578e+01 
-1.5663649e-01 6.2038553e-01 4.2571964e+01 
-4.3632439e-01 9.6404165e-01 4.2495808e+01 
-1.7531081e-01 8.4539592e-01 4.2506718e+01 
-2.7261066e-01 7.1026409e-01 4.2496017e+01 
-3.0958602e-01 9.1987789e-01 4.2426853e+01 
-3.7859210e-01 8.2613736e-01 4.2421188e+01 
4.6141517e-01 3.2527190e-01 4.2776375e+01 
6.2686495e-02 6.2762415e-01 4.2501175e+01 
-3.3570320e-04 5.2390522e-01 4.2492062e+01 
-5.6779940e-02 7.5462401e-01 4.2422298e+01 
-4.3632373e-01 9.6403772e-01 4.2357380e+01 
-1.5262254e-01 6.1603409e-01 4.2412144e+01 
-1.7177837e-01 8.4521037e-01 4.2345684e+01 
-2.7093092e-01 7.0762289e-01 4.2334549e+01 
-3.0808610e-01 9.2009580e-01 4.2287842e+01 
-3.8275370e-01 8.3137155e-01 4.2275047e+01 
4.9876589e-02 6.4471585e-01 4.2356720e+01 
-1.9539909e-02 5.3318781e-01 4.2347118e+01 
-4.3632311e-01 9.6403396e-01 4.2217781e+01 
2.1959943e-01 4.8236796e-01 4.2385345e+01 
-5.1174615e-02 7.5245124e-01 4.2259373e+01 
1.9034323e-01 4.2346162e-01 4.2378918e+01 
-1.4847966e-01 6.1155808e-01 4.2248856e+01 
4.7536272e-01 3.1546980e-01 4.2535065e+01 
-1.6817927e-01 8.4500539e-01 4.2181026e+01 
-2.6921678e-01 7.0492369e-01 4.2169544e+01 
-3.0656675e-01 9.2030340e-01 4.2147648e+01 
-3.9470181e-01 8.4769493e-01 4.2145920e+01 
7.7868804e-02 6.1763972e-01 4.2175373e+01 
-4.3632248e-01 9.6403021e-01 4.2076988e+01 
1.4390758e-02 5.1145434e-01 4.2165581e+01 
-4.5421973e-02 7.5016522e-01 4.2092751e+01 
-1.4420210e-01 6.0695171e-01 4.2081959e+01 
-3.0502778e-01 9.2049998e-01 4.2006248e+01 
-4.0175444e-01 8.5747409e-01 4.2004128e+01 
-1.6451253e-01 8.4477836e-01 4.2012604e+01 
4.8935395e-01 3.0558801e-01 4.2292507e+01 
-2.6746723e-01 7.0216429e-01 4.2000870e+01 
6.4714879e-02 6.3520777e-01 4.2024277e+01 
-4.3632188e-01 9.6402657e-01 4.1934975e+01 
-5.4755262e-03 5.2092212e-01 4.2014156e+01 
-2.3078828e-01 8.1064087e-01 4.1931458e+01 
2.3550548e-01 4.7116494e-01 4.2073269e+01 
2.0610523e-01 4.1123796e-01 4.2066772e+01 
-3.9517213e-02 7.4775779e-01 4.1922287e+01 
-1.3978374e-01 6.0220873e-01 4.1911320e+01 
-3.0346894e-01 9.2068475e-01 4.1863613e+01 
-3.9432141e-01 8.4618556e-01 4.1861881e+01 
-1.6077711e-01 8.4452641e-01 4.1840263e+01 
-2.6568118e-01 6.9934219e-01 4.1828377e+01 
-4.3632129e-01 9.6402299e-01 4.1791718e+01 
5.0338638e-01 2.9562023e-01 4.2048656e+01 
9.4028555e-02 6.0672593e-01 4.1834507e+01 
3.0205652e-02 4.9819478e-01 4.1824417e+01 
-3.8116732e-01 8.2744831e-01 4.1725647e+01 
-3.0189002e-01 9.2085695e-01 4.1719719e+01 
-3.3455357e-02 7.4522001e-01 4.1747829e+01 
-1.3521814e-01 5.9732240e-01 4.1736786e+01 
-4.3632072e-01 9.6401960e-01 4.1647179e+01 
-1.5697217e-01 8.4424627e-01 4.1663853e+01 
-2.6385748e-01 6.9645494e-01 4.1651920e+01 
8.0488607e-02 6.2478805e-01 4.1676235e+01 
2.6870471e-01 4.4547972e-01 4.1752304e+01 
9.6269641e-03 5.0785345e-01 4.1665993e+01 
2.4764967e-01 3.8646612e-01 4.1743168e+01 
-3.0029076e-01 9.2101562e-01 4.1574532e+01 
-3.9388368e-01 8.4456980e-01 4.1572796e+01 
5.1745731e-01 2.8556010e-01 4.1803486e+01 
-2.7231261e-02 7.4254233e-01 4.1569210e+01 
-1.3049847e-01 5.9228569e-01 4.1558201e+01 
-4.3632016e-01 9.6401632e-01 4.1501339e+01 
-1.5309690e-01 8.4393430e-01 4.1483204e+01 
-2.6199502e-01 6.9349992e-01 4.1471333e+01 
-2.9867104e-01 9.2115986e-01 4.1428024e+01 
-3.9364263e-01 8.4372103e-01 4.1426289e+01 
1.1125199e-01 5.9476525e-01 4.1477348e+01 
4.7217656e-02 4.8404291e-01 4.1467384e+01 
-4.3631962e-01 9.6401310e-01 4.1354160e+01 
-2.0839609e-02 7.3971421e-01 4.1386261e+01 
-1.2561750e-01 5.8709091e-01 4.1375404e+01 
5.3156406e-01 2.7540097e-01 4.1556946e+01 
-1.4915068e-01 8.4358656e-01 4.1298138e+01 
-2.9703063e-01 9.2128879e-01 4.1280167e+01 
-3.9338648e-01 8.4284443e-01 4.1278431e+01 
-2.6009262e-01 6.9047421e-01 4.1286449e+01 
2.9365057e-01 4.2687622e-01 4.1391586e+01 
9.7278498e-02 6.1333776e-01 4.1311302e+01 
2.7470219e-01 3.6807936e-01 4.1382729e+01 
2.5872495e-02 4.9389899e-01 4.1301384e+01 
-4.3631911e-01 9.6401012e-01 4.1205620e+01 
-1.4274905e-02 7.3672432e-01 4.1198803e+01 
-1.2056758e-01 5.8173001e-01 4.1188221e+01 
-2.9536936e-01 9.2140132e-01 4.1130928e+01 
[...]
POINT_DATA 4496
FIELD FieldData 5
DISPLACEMENT 3 4496  float
1.6532565e-02 1.6489776e-02 -1.5889088e-04 
1.6464422e-02 1.6409367e-02 -1.5884354e-04 
1.6550181e-02 1.6529234e-02 -1.8843373e-04 
1.6575051e-02 1.6507324e-02 -1.0738811e-04 
1.6466651e-02 1.6381852e-02 -1.1115827e-04 
1.6446518e-02 1.6406892e-02 -1.8833175e-04 
1.6395809e-02 1.6328413e-02 -1.5879463e-04 
1.6572870e-02 1.6566571e-02 -2.0516073e-04 
1.6610257e-02 1.6539969e-02 -9.3349779e-05 
1.6504133e-02 1.6486404e-02 -2.0659743e-04 
1.6541548e-02 1.6458517e-02 -9.2692200e-05 
1.6397929e-02 1.6300613e-02 -1.1086131e-04 
1.6377561e-02 1.6326087e-02 -1.8917632e-04 
1.6434122e-02 1.6404737e-02 -2.0805755e-04 
1.6596606e-02 1.6598599e-02 -2.1153812e-04 
1.6471598e-02 1.6375603e-02 -9.2027942e-05 
1.6326724e-02 1.6246900e-02 -1.5874366e-04 
1.6635511e-02 1.6571969e-02 -9.6852382e-05 
1.6419390e-02 1.6333325e-02 -1.2256690e-04 
1.6519481e-02 1.6508475e-02 -2.1288036e-04 
1.6557259e-02 1.6481303e-02 -9.9423887e-05 
1.6308134e-02 1.6244719e-02 -1.9001040e-04 
1.6328728e-02 1.6218817e-02 -1.1056199e-04 
1.6362799e-02 1.6321534e-02 -2.0954253e-04 
1.6400367e-02 1.6291173e-02 -9.1350485e-05 
1.6627114e-02 1.6630573e-02 -2.0519177e-04 
1.6422490e-02 1.6395474e-02 -2.1513004e-04 
1.6257178e-02 1.6164821e-02 -1.5868615e-04 
1.6659450e-02 1.6609896e-02 -1.1218391e-04 
1.6461346e-02 1.6365774e-02 -9.5600852e-05 
1.6290126e-02 1.6236745e-02 -2.1104809e-04 
1.6238227e-02 1.6162777e-02 -1.9085703e-04 
1.6259056e-02 1.6136462e-02 -1.1026164e-04 
1.6493261e-02 1.6472468e-02 -2.0487790e-04 
1.6327808e-02 1.6205188e-02 -9.0665060e-05 
1.6350880e-02 1.6311895e-02 -2.1656731e-04 
1.6523674e-02 1.6451186e-02 -1.1443127e-04 
1.6569830e-02 1.6559176e-02 -1.9913907e-04 
1.6389837e-02 1.6281091e-02 -9.5020499e-05 
1.6595555e-02 1.6542679e-02 -1.2505641e-04 
1.6187133e-02 1.6082192e-02 -1.5863020e-04 
1.6661854e-02 1.6666338e-02 -1.9692813e-04 
1.6421836e-02 1.6390322e-02 -2.0823273e-04 
1.6456161e-02 1.6369276e-02 -1.1080450e-04 
1.6683828e-02 1.6653717e-02 -1.3600299e-04 
1.6216049e-02 1.6150309e-02 -2.1257516e-04 
1.6277907e-02 1.6226711e-02 -2.1802026e-04 
1.6167831e-02 1.6080270e-02 -1.9169701e-04 
1.6188892e-02 1.6053528e-02 -1.0993271e-04 
1.6253898e-02 1.6117597e-02 -8.9968693e-05 
1.6317002e-02 1.6194835e-02 -9.4432413e-05 
1.6608419e-02 1.6604109e-02 -1.9820234e-04 
1.6351312e-02 1.6306138e-02 -2.0669631e-04 
1.6623907e-02 1.6594982e-02 -1.5487126e-04 
1.6116608e-02 1.5998956e-02 -1.5856391e-04 
1.6381493e-02 1.6283294e-02 -1.1408158e-04 
1.6490962e-02 1.6465997e-02 -1.9894495e-04 
1.6509034e-02 1.6454251e-02 -1.4657855e-04 
1.6698955e-02 1.6711649e-02 -1.9935622e-04 
1.6710078e-02 1.6706266e-02 -1.7009590e-04 
1.6203526e-02 1.6139865e-02 -2.1949499e-04 
1.6279520e-02 1.6223583e-02 -2.1010323e-04 
1.6140535e-02 1.6062191e-02 -2.1412669e-04 
1.6096924e-02 1.5997164e-02 -1.9255048e-04 
1.6118232e-02 1.5970016e-02 -1.0961006e-04 
1.6242791e-02 1.6106969e-02 -9.3849070e-05 
1.6311469e-02 1.6198352e-02 -1.1032099e-04 
1.6178567e-02 1.6028346e-02 -8.9266156e-05 
1.6045567e-02 1.5915146e-02 -1.5850340e-04 
1.6360316e-02 1.6312646e-02 -2.0023933e-04 
1.6377650e-02 1.6300304e-02 -1.4819090e-04 
1.6127693e-02 1.6051320e-02 -2.2097232e-04 
1.6167149e-02 1.6017424e-02 -9.3253715e-05 
1.6025526e-02 1.5913483e-02 -1.9339223e-04 
1.6047079e-02 1.5885916e-02 -1.0928301e-04 
1.6203901e-02 1.6133342e-02 -2.0851198e-04 
1.6063530e-02 1.5972316e-02 -2.1569208e-04 
1.6233932e-02 1.6109107e-02 -1.1378646e-04 
1.6101783e-02 1.5937384e-02 -8.8550776e-05 
1.6732527e-02 1.6770292e-02 -2.2943450e-04 
1.5974015e-02 1.5830727e-02 -1.5844344e-04 
1.6608121e-02 1.6624300e-02 -2.3071071e-04 
1.6129322e-02 1.6047575e-02 -2.1204635e-04 
1.6161235e-02 1.6020939e-02 -1.0987221e-04 
1.6050361e-02 1.5961003e-02 -2.2246961e-04 
1.5972262e-02 1.5799483e-02 -1.1207455e-04 
1.5953578e-02 1.5829163e-02 -1.9425128e-04 
1.6090054e-02 1.5926169e-02 -9.2661670e-05 
1.5984990e-02 1.5880655e-02 -2.1727839e-04 
1.6023520e-02 1.5844677e-02 -8.7810571e-05 
1.6483119e-02 1.6477596e-02 -2.3198787e-04 
1.6213004e-02 1.6139714e-02 -2.0165011e-04 
1.5901929e-02 1.5745720e-02 -1.5838063e-04 
1.6219979e-02 1.6115328e-02 -1.4973934e-04 
1.6050652e-02 1.5953640e-02 -2.1032096e-04 
1.5971480e-02 1.5868869e-02 -2.2396994e-04 
1.5881153e-02 1.5744260e-02 -1.9508535e-04 
1.5903182e-02 1.5715869e-02 -1.0858271e-04 
1.6080625e-02 1.5928214e-02 -1.1355163e-04 
1.6011423e-02 1.5833125e-02 -9.2057380e-05 
1.5904857e-02 1.5787115e-02 -2.1887537e-04 
1.6357506e-02 1.6330095e-02 -2.3326707e-04 
1.5943678e-02 1.5750133e-02 -8.7074375e-05 
1.5829360e-02 1.5660066e-02 -1.5829693e-04 
1.5973108e-02 1.5864447e-02 -2.1397750e-04 
1.6005080e-02 1.5836619e-02 -1.0947721e-04 
1.5808176e-02 1.5658725e-02 -1.9594806e-04 
1.5830465e-02 1.5629942e-02 -1.0823456e-04 
1.5890993e-02 1.5774842e-02 -2.2548699e-04 
1.5931241e-02 1.5738264e-02 -9.1465015e-05 
1.6056160e-02 1.5955545e-02 -2.0311882e-04 
1.5823074e-02 1.5691642e-02 -2.2048730e-04 
1.6071428e-02 1.5940601e-02 -1.5049129e-04 
1.5862260e-02 1.5653746e-02 -8.6336768e-05 
1.6231289e-02 1.6181896e-02 -2.3458524e-04 
1.5756214e-02 1.5573850e-02 -1.5821481e-04 
1.5768372e-02 1.5554096e-02 -1.0387718e-04 
1.5734676e-02 1.5572602e-02 -1.9676976e-04 
1.5891172e-02 1.5766593e-02 -2.1211266e-04 
1.5921179e-02 1.5740201e-02 -1.1340464e-04 
1.5808834e-02 1.5678888e-02 -2.2700828e-04 
1.5849415e-02 1.5641507e-02 -9.0853602e-05 
1.5739616e-02 1.5594231e-02 -2.2211058e-04 
1.5682554e-02 1.5486993e-02 -1.5811692e-04 
1.5779164e-02 1.5555373e-02 -8.5576728e-05 
1.6104428e-02 1.6032916e-02 -2.3587089e-04 
1.5810460e-02 1.5673758e-02 -2.1588587e-04 
1.5693679e-02 1.5464917e-02 -1.0194190e-04 
1.5660634e-02 1.5485822e-02 -1.9757112e-04 
1.5842592e-02 1.5644969e-02 -1.0915208e-04 
1.5900403e-02 1.5772671e-02 -2.0456055e-04 
1.5725002e-02 1.5580933e-02 -2.2854941e-04 
1.5916031e-02 1.5758926e-02 -1.5294623e-04 
1.5765939e-02 1.5542813e-02 -9.0294910e-05 
1.5608364e-02 1.5399485e-02 -1.5798896e-04 
1.5654380e-02 1.5494769e-02 -2.2376748e-04 
1.5694354e-02 1.5455060e-02 -8.4815707e-05 
1.5586006e-02 1.5398419e-02 -1.9841199e-04 
1.5614669e-02 1.5371522e-02 -1.0129947e-04 
1.5976997e-02 1.5883315e-02 -2.3714731e-04 
1.5725043e-02 1.5571732e-02 -2.1385914e-04 
1.5755191e-02 1.5544621e-02 -1.1334031e-04 
1.5639385e-02 1.5480925e-02 -2.3004810e-04 
1.5533583e-02 1.5311388e-02 -1.5788330e-04 
1.5680710e-02 1.5442106e-02 -8.9701316e-05 
1.5567344e-02 1.5393201e-02 -2.2540816e-04 
1.5607777e-02 1.5352700e-02 -8.4040934e-05 
1.5510851e-02 1.5310396e-02 -1.9922828e-04 
1.5533890e-02 1.5277131e-02 -1.0235258e-04 
1.5640961e-02 1.5475002e-02 -2.1773951e-04 
1.5673401e-02 1.5445535e-02 -1.0888752e-04 
1.5458260e-02 1.5222672e-02 -1.5776443e-04 
1.5711205e-02 1.5550559e-02 -2.0621784e-04 
1.5551950e-02 1.5378805e-02 -2.3154904e-04 
1.5727591e-02 1.5536608e-02 -1.5261862e-04 
1.5593704e-02 1.5339370e-02 -8.9114350e-05 
1.5848940e-02 1.5732948e-02 -2.3840011e-04 
1.5478436e-02 1.5289465e-02 -2.2706120e-04 
1.5519358e-02 1.5248222e-02 -8.3256964e-05 
1.5435160e-02 1.5221774e-02 -2.0002175e-04 
1.5458680e-02 1.5191077e-02 -1.0625178e-04 
1.5551842e-02 1.5368608e-02 -2.1555464e-04 
1.5382363e-02 1.5133285e-02 -1.5765215e-04 
1.5582254e-02 1.5341054e-02 -1.1342089e-04 
1.5462633e-02 1.5274502e-02 -2.3305266e-04 
1.5504896e-02 1.5234509e-02 -8.8506793e-05 
1.5358798e-02 1.5132408e-02 -2.0086882e-04 
1.5378820e-02 1.5098666e-02 -1.0861783e-04 
1.5387588e-02 1.5183497e-02 -2.2872385e-04 
1.5720267e-02 1.5581866e-02 -2.3966016e-04 
1.5429116e-02 1.5141623e-02 -8.2428589e-05 
1.5464188e-02 1.5267794e-02 -2.1952330e-04 
1.5305779e-02 1.5043203e-02 -1.5754851e-04 
1.5497041e-02 1.5237901e-02 -1.0874438e-04 
1.5355277e-02 1.5109777e-02 -1.7112965e-04 
1.5545656e-02 1.5356296e-02 -2.0763297e-04 
1.5562234e-02 1.5342325e-02 -1.5341301e-04 
1.5371381e-02 1.5167974e-02 -2.3456357e-04 
1.5414169e-02 1.5127485e-02 -8.7896726e-05 
1.5281822e-02 1.5042349e-02 -2.0168083e-04 
1.5305822e-02 1.5010887e-02 -1.0541519e-04 
1.5294726e-02 1.5075271e-02 -2.3040186e-04 
1.5336928e-02 1.5032714e-02 -8.1593709e-05 
1.5228631e-02 1.4952422e-02 -1.5740193e-04 
1.5591043e-02 1.5430233e-02 -2.4092790e-04 
1.5371081e-02 1.5156710e-02 -2.1718751e-04 
1.5401886e-02 1.5129004e-02 -1.1362237e-04 
1.5238709e-02 1.4928988e-02 -1.0051750e-04 
1.5204328e-02 1.4951688e-02 -2.0244479e-04 
1.5278071e-02 1.5059060e-02 -2.3607048e-04 
1.5321441e-02 1.5018146e-02 -8.7276829e-05 
1.5150925e-02 1.4860959e-02 -1.5721955e-04 
1.5199792e-02 1.4964587e-02 -2.3208660e-04 
1.5242630e-02 1.4921465e-02 -8.0774364e-05 
1.5279567e-02 1.5051515e-02 -2.2121990e-04 
1.5380334e-02 1.5162552e-02 -2.0920549e-04 
1.5312946e-02 1.5021474e-02 -1.0871404e-04 
1.5395040e-02 1.5149736e-02 -1.6021801e-04 
1.5126162e-02 1.4860314e-02 -2.0325487e-04 
1.5150709e-02 1.4828116e-02 -1.0446435e-04 
1.5461344e-02 1.5278191e-02 -2.4217584e-04 
1.5182669e-02 1.4947716e-02 -2.3757172e-04 
1.5226680e-02 1.4906499e-02 -8.6707099e-05 
1.5072581e-02 1.4768889e-02 -1.5705507e-04 
1.5102678e-02 1.4851437e-02 -2.3373608e-04 
1.5146246e-02 1.4807858e-02 -7.9959609e-05 
1.5047430e-02 1.4768277e-02 -2.0401014e-04 
1.5072200e-02 1.4735756e-02 -1.0403641e-04 
1.5182169e-02 1.4935382e-02 -2.1871568e-04 
1.5213522e-02 1.4907897e-02 -1.1392378e-04 
1.4993572e-02 1.4676189e-02 -1.5690335e-04 
1.5085088e-02 1.4833902e-02 -2.3902318e-04 
1.5129782e-02 1.4792424e-02 -8.6088301e-05 
1.5331016e-02 1.5125377e-02 -2.4335293e-04 
1.5003336e-02 1.4735773e-02 -2.3536918e-04 
1.4968035e-02 1.4675609e-02 -2.0475240e-04 
1.4993029e-02 1.4642678e-02 -1.0352109e-04 
1.5047719e-02 1.4691758e-02 -7.9057587e-05 
1.5191377e-02 1.4941262e-02 -2.1085353e-04 
1.5086531e-02 1.4825463e-02 -2.2283748e-04 
1.5206032e-02 1.4929412e-02 -1.6328164e-04 
1.5120653e-02 1.4795697e-02 -1.0874399e-04 
1.4913983e-02 1.4582661e-02 -1.5672848e-04 
1.4985284e-02 1.4717517e-02 -2.4049298e-04 
1.5030642e-02 1.4675839e-02 -8.5478525e-05 
1.4887996e-02 1.4582115e-02 -2.0553604e-04 
1.4913276e-02 1.4548873e-02 -1.0305022e-04 
1.4901697e-02 1.4617418e-02 -2.3707077e-04 
1.4946896e-02 1.4573137e-02 -7.8183533e-05 
1.5200083e-02 1.4971999e-02 -2.4456109e-04 
1.4833670e-02 1.4488523e-02 -1.5655204e-04 
1.4984516e-02 1.4703977e-02 -2.2014194e-04 
1.5016518e-02 1.4677001e-02 -1.1442518e-04 
1.4807279e-02 1.4487965e-02 -2.0630888e-04 
1.4832803e-02 1.4454365e-02 -1.0251890e-04 
1.4883080e-02 1.4598367e-02 -2.4192213e-04 
1.4929263e-02 1.4556700e-02 -8.4883068e-05 
1.4752758e-02 1.4393569e-02 -1.5634809e-04 
1.4797640e-02 1.4496349e-02 -2.3866387e-04 
1.4843689e-02 1.4451811e-02 -7.7264987e-05 
1.4993601e-02 1.4709920e-02 -2.1260825e-04 
1.5008373e-02 1.4699359e-02 -1.6668314e-04 
1.4882178e-02 1.4584227e-02 -2.2074810e-04 
1.5068634e-02 1.4818174e-02 -2.4574649e-04 
1.4725956e-02 1.4393068e-02 -2.0700942e-04 
1.4751709e-02 1.4359185e-02 -1.0206431e-04 
1.4914547e-02 1.4557767e-02 -1.1468434e-04 
1.4778504e-02 1.4476540e-02 -2.4329644e-04 
1.4825449e-02 1.4434846e-02 -8.4300351e-05 
1.4671101e-02 1.4298039e-02 -1.5614969e-04 
1.4691007e-02 1.4372406e-02 -2.4030516e-04 
1.4738155e-02 1.4327795e-02 -7.6356308e-05 
1.4643923e-02 1.4297586e-02 -2.0768702e-04 
1.4669882e-02 1.4263282e-02 -1.0150215e-04 
1.4777413e-02 1.4461718e-02 -2.2135951e-04 
1.4688776e-02 1.4302210e-02 -1.2925859e-04 
1.4810223e-02 1.4435858e-02 -1.1507547e-04 
1.4588807e-02 1.4201659e-02 -1.5590656e-04 
1.4936472e-02 1.4663436e-02 -2.4686975e-04 
1.4826722e-02 1.4514551e-02 -2.1346251e-04 
1.4671391e-02 1.4351833e-02 -2.4457675e-04 
1.4843185e-02 1.4502773e-02 -1.6197101e-04 
1.4719230e-02 1.4310366e-02 -8.3697072e-05 
1.4561158e-02 1.4201195e-02 -2.0832184e-04 
1.4587361e-02 1.4166614e-02 -1.0096758e-04 
1.4581991e-02 1.4245699e-02 -2.4179583e-04 
1.4630008e-02 1.4201042e-02 -7.5512027e-05 
1.4505795e-02 1.4104676e-02 -1.5569836e-04 
1.4670152e-02 1.4336385e-02 -2.2196048e-04 
1.4703416e-02 1.4311185e-02 -1.1545100e-04 
1.4561712e-02 1.4224236e-02 -2.4590452e-04 
1.4477799e-02 1.4104164e-02 -2.0898991e-04 
1.4504240e-02 1.4069281e-02 -1.0040568e-04 
1.4610416e-02 1.4183006e-02 -8.3055325e-05 
1.4803580e-02 1.4508312e-02 -2.4805727e-04 
1.4470136e-02 1.4115916e-02 -2.4341297e-04 
1.4422110e-02 1.4006912e-02 -1.5544244e-04 
1.4706629e-02 1.4352812e-02 -1.7840596e-04 
1.4693961e-02 1.4361330e-02 -2.1729570e-04 
1.4519279e-02 1.4071351e-02 -7.4498799e-05 
1.4560246e-02 1.4208121e-02 -2.2243804e-04 
1.4593977e-02 1.4183640e-02 -1.1593891e-04 
1.4393662e-02 1.4006366e-02 -2.0967014e-04 
1.4420321e-02 1.3971189e-02 -9.9831988e-05 
1.4449259e-02 1.4093532e-02 -2.4719446e-04 
1.4498998e-02 1.4052695e-02 -8.2443614e-05 
1.4337623e-02 1.3908360e-02 -1.5516752e-04 
1.4670176e-02 1.4352513e-02 -2.4909375e-04 
1.4355414e-02 1.3982934e-02 -2.4500815e-04 
1.4405804e-02 1.3938574e-02 -7.3468378e-05 
1.4308757e-02 1.3907840e-02 -2.1025914e-04 
1.4335611e-02 1.3872347e-02 -9.9286619e-05 
1.4573073e-02 1.4197079e-02 -1.7913243e-04 
1.4560489e-02 1.4205740e-02 -2.1825366e-04 
1.4445434e-02 1.4074377e-02 -2.2301594e-04 
1.4478685e-02 1.4049190e-02 -1.1588944e-04 
1.4327524e-02 1.3893522e-02 -1.5016783e-04 
1.4252566e-02 1.3809180e-02 -1.5487436e-04 
1.4334226e-02 1.3960145e-02 -2.4864729e-04 
1.4385437e-02 1.3919800e-02 -8.1330661e-05 
1.4223665e-02 1.3808651e-02 -2.1009700e-04 
1.4250464e-02 1.3773358e-02 -9.9201308e-05 
1.4239918e-02 1.3849109e-02 -2.4637650e-04 
1.4536244e-02 1.4196377e-02 -2.5008168e-04 
1.4292616e-02 1.3806486e-02 -7.2552852e-05 
1.4168131e-02 1.3711047e-02 -1.5463514e-04 
1.4326241e-02 1.3936316e-02 -2.2468051e-04 
1.4363274e-02 1.3913364e-02 -1.1352017e-04 
1.4439432e-02 1.4041614e-02 -1.7998341e-04 
1.4426962e-02 1.4050340e-02 -2.1916220e-04 
1.4214112e-02 1.3761603e-02 -1.5012844e-04 
1.4139329e-02 1.3710498e-02 -2.0986694e-04 
1.4218790e-02 1.3826607e-02 -2.5032612e-04 
1.4165987e-02 1.3675219e-02 -9.9032419e-05 
1.4272588e-02 1.3787807e-02 -7.9933656e-05 
1.4084455e-02 1.3613618e-02 -1.5430343e-04 
1.4126589e-02 1.3717956e-02 -2.4769822e-04 
1.4181294e-02 1.3676846e-02 -7.1637820e-05 
1.4402267e-02 1.4040358e-02 -2.5107680e-04 
1.4210729e-02 1.3803092e-02 -2.2676872e-04 
1.4250848e-02 1.3781194e-02 -1.1107732e-04 
1.4055491e-02 1.3613027e-02 -2.0974521e-04 
1.4082112e-02 1.3577941e-02 -9.8883072e-05 
1.4274995e-02 1.3871823e-02 -2.1686751e-04 
1.4293838e-02 1.3862276e-02 -1.6350995e-04 
1.4105491e-02 1.3695708e-02 -2.5194662e-04 
1.4161557e-02 1.3658080e-02 -7.8534074e-05 
1.4074545e-02 1.3599394e-02 -1.4972487e-04 
1.4001316e-02 1.3517120e-02 -1.5402622e-04 
1.4071779e-02 1.3549387e-02 -7.0657159e-05 
1.4015158e-02 1.3589147e-02 -2.4893120e-04 
1.3972387e-02 1.3516433e-02 -2.0953405e-04 
1.3998858e-02 1.3481536e-02 -9.8717777e-05 
1.4140205e-02 1.3651310e-02 -1.0866969e-04 
1.4097299e-02 1.3672386e-02 -2.2884955e-04 
1.4268504e-02 1.3884954e-02 -2.5205227e-04 
1.3918674e-02 1.3421392e-02 -1.5376223e-04 
1.4052238e-02 1.3530638e-02 -7.7150180e-05 
1.3994119e-02 1.3567287e-02 -2.5349361e-04 
1.4160378e-02 1.3740961e-02 -2.2113296e-04 
1.4153072e-02 1.3700525e-02 -1.6668130e-04 
1.3889753e-02 1.3420603e-02 -2.0926325e-04 
1.3913057e-02 1.3382973e-02 -9.9851473e-05 
1.3964035e-02 1.3424045e-02 -6.9570277e-05 
1.3905652e-02 1.3462928e-02 -2.5018505e-04 
1.3892747e-02 1.3391816e-02 -1.5471499e-04 
1.3836661e-02 1.3326252e-02 -1.5340354e-04 
1.4031157e-02 1.3523661e-02 -1.0645088e-04 
1.3990120e-02 1.3544351e-02 -2.2299640e-04 
1.3944536e-02 1.3405423e-02 -7.5918746e-05 
1.3884692e-02 1.3441141e-02 -2.5495279e-04 
1.3807705e-02 1.3325437e-02 -2.0894525e-04 
1.4135143e-02 1.3730368e-02 -2.5306255e-04 
1.3833968e-02 1.3290767e-02 -9.8296106e-05 
1.3853020e-02 1.3339371e-02 -1.4361848e-04 
1.4030912e-02 1.3558890e-02 -1.6681773e-04 
1.3755194e-02 1.3232015e-02 -1.5309043e-04 
1.3857658e-02 1.3300924e-02 -6.8749971e-05 
1.3797956e-02 1.3338741e-02 -2.5122627e-04 
1.4027343e-02 1.3586947e-02 -2.2194287e-04 
1.3923816e-02 1.3398239e-02 -1.0413741e-04 
1.3876282e-02 1.3418144e-02 -2.3264308e-04 
1.3726229e-02 1.3231133e-02 -2.0871502e-04 
1.3752434e-02 1.3196614e-02 -9.8109114e-05 
1.3838526e-02 1.3282309e-02 -7.4566880e-05 
1.3777103e-02 1.3317250e-02 -2.5624895e-04 
1.3738600e-02 1.3201702e-02 -1.3402551e-04 
1.3674242e-02 1.3138512e-02 -1.5279031e-04 
1.4001911e-02 1.3576205e-02 -2.5409690e-04 
1.3753018e-02 1.3179718e-02 -6.7715337e-05 
1.3691983e-02 1.3216842e-02 -2.5223405e-04 
1.3902194e-02 1.3402221e-02 -1.5397453e-04 
1.3871086e-02 1.3403357e-02 -2.1782411e-04 
1.3645281e-02 1.3137529e-02 -2.0839821e-04 
1.3818120e-02 1.3274876e-02 -1.0194865e-04 
1.3671939e-02 1.3099518e-02 -9.0434973e-05 
1.3768625e-02 1.3294620e-02 -2.3450871e-04 
1.3593735e-02 1.3045666e-02 -1.5247830e-04 
1.3734036e-02 1.3161135e-02 -7.3235613e-05 
1.3671217e-02 1.3195652e-02 -2.5745670e-04 
1.3590792e-02 1.3010432e-02 -9.7699194e-05 
1.3561713e-02 1.3038096e-02 -2.0288679e-04 
1.3649897e-02 1.3060498e-02 -6.6764274e-05 
1.3587690e-02 1.3097020e-02 -2.5318918e-04 
1.3868846e-02 1.3422356e-02 -2.5485380e-04 
1.3578570e-02 1.3035547e-02 -1.6520296e-04 
1.3713972e-02 1.3153628e-02 -9.9840290e-05 
1.3662573e-02 1.3173158e-02 -2.3630173e-04 
1.3513767e-02 1.2953679e-02 -1.5219582e-04 
1.3630968e-02 1.3042071e-02 -7.2040624e-05 
1.3761883e-02 1.3280219e-02 -2.2355137e-04 
1.3773750e-02 1.3271400e-02 -1.8444061e-04 
1.3530863e-02 1.2937031e-02 -8.9686422e-05 
1.3566965e-02 1.3075998e-02 -2.5855427e-04 
1.3494593e-02 1.2967423e-02 -2.1437090e-04 
1.3713966e-02 1.3173023e-02 -1.3349339e-04 
1.3674102e-02 1.3176695e-02 -2.1976150e-04 
1.3548056e-02 1.2943227e-02 -6.5906264e-05 
1.3485231e-02 1.2979231e-02 -2.5386311e-04 
1.3434422e-02 1.2862388e-02 -1.5181088e-04 
1.3611265e-02 1.3034307e-02 -9.7720302e-05 
1.3558363e-02 1.3053966e-02 -2.3794285e-04 
1.3735554e-02 1.3268332e-02 -2.5564837e-04 
1.3446581e-02 1.2838585e-02 -8.6326079e-05 
1.3407289e-02 1.2867572e-02 -2.1509643e-04 
1.3529437e-02 1.2924737e-02 -7.0804657e-05 
1.3464483e-02 1.2958529e-02 -2.5966504e-04 
1.3355572e-02 1.2771680e-02 -1.5145121e-04 
1.3629154e-02 1.3127330e-02 -2.2419982e-04 
1.3640846e-02 1.3118547e-02 -1.8518351e-04 
1.3447748e-02 1.2827637e-02 -6.4888576e-05 
1.3384275e-02 1.2863616e-02 -2.5461722e-04 
1.3509920e-02 1.2916805e-02 -9.5725438e-05 
1.3322066e-02 1.2768849e-02 -2.1347088e-04 
1.3438551e-02 1.2919390e-02 -2.4366833e-04 
1.3531076e-02 1.2961308e-02 -1.3099257e-04 
1.3346192e-02 1.2723332e-02 -8.5851585e-05 
1.3429184e-02 1.2809286e-02 -6.9640650e-05 
1.3363621e-02 1.2842956e-02 -2.6063350e-04 
1.3277051e-02 1.2681695e-02 -1.5107899e-04 
1.3602621e-02 1.3115024e-02 -2.5629514e-04 
1.3299880e-02 1.2713809e-02 -1.6183786e-04 
1.3348767e-02 1.2714002e-02 -6.3893393e-05 
1.3451725e-02 1.2920535e-02 -2.1964643e-04 
1.3248217e-02 1.2677897e-02 -2.0224303e-04 
1.3284760e-02 1.2749628e-02 -2.5531577e-04 
1.3273717e-02 1.2646833e-02 -9.6750235e-05 
1.3409987e-02 1.2801195e-02 -9.3730843e-05 
1.3496695e-02 1.2975062e-02 -2.2467045e-04 
1.3508265e-02 1.2966310e-02 -1.8569642e-04 
1.3354660e-02 1.2821319e-02 -2.4108250e-04 
1.3264527e-02 1.2626058e-02 -7.8548030e-05 
1.3199053e-02 1.2592418e-02 -1.5073175e-04 
1.3330362e-02 1.2695664e-02 -6.8365989e-05 
1.3264158e-02 1.2729288e-02 -2.6151648e-04 
1.3206315e-02 1.2570494e-02 -9.7771248e-05 
1.3170347e-02 1.2590771e-02 -2.0576971e-04 
1.3251074e-02 1.2601890e-02 -6.2955842e-05 
1.3186712e-02 1.2637722e-02 -2.5582282e-04 
1.3469785e-02 1.2962369e-02 -2.5692742e-04 
1.3311278e-02 1.2687319e-02 -9.1801681e-05 
1.3121557e-02 1.2503732e-02 -1.5036040e-04 
1.3238561e-02 1.2691206e-02 -2.4634952e-04 
1.3156581e-02 1.2505526e-02 -8.3155493e-05 
1.3336610e-02 1.2739954e-02 -1.3384964e-04 
1.3232714e-02 1.2583632e-02 -6.7188907e-05 
1.3182756e-02 1.2565459e-02 -1.3622153e-04 
1.3101196e-02 1.2517225e-02 -2.1556177e-04 
1.3364389e-02 1.2823290e-02 -2.2526122e-04 
1.3166199e-02 1.2617434e-02 -2.6235238e-04 
1.3375833e-02 1.2814582e-02 -1.8634126e-04 
1.3154562e-02 1.2491615e-02 -6.2121500e-05 
1.3251354e-02 1.2691235e-02 -2.2082553e-04 