# vtk DataFile Version 4.0
vtk output
ASCII
DATASET UNSTRUCTURED_GRID
POINTS 4496 float
-4.3633327e-01 9.6409470e-01 4.4200001e+01 
-4.3633258e-01 9.6409065e-01 4.4074627e+01 
-3.2152572e-01 9.1279918e-01 4.4200001e+01 
-3.8534868e-01 8.4052670e-01 4.4200001e+01 
-3.9589554e-01 8.5545403e-01 4.4010014e+01 
-3.2616228e-01 9.1667932e-01 4.4011734e+01 
-4.3633190e-01 9.6408653e-01 4.3948376e+01 
-2.1293370e-01 8.4677851e-01 4.4200001e+01 
-2.9042658e-01 7.3813015e-01 4.4200001e+01 
-2.1010752e-01 8.4669363e-01 4.4073502e+01 
-2.8908840e-01 7.3604190e-01 4.4072292e+01 
-3.9589015e-01 8.5505831e-01 4.3883316e+01 
-3.2487559e-01 9.1697580e-01 4.3885036e+01 
-2.0722924e-01 8.4660655e-01 4.3944645e+01 
-1.1981077e-01 7.7773046e-01 4.4200001e+01 
-2.8772619e-01 7.3391593e-01 4.3942276e+01 
-4.3633121e-01 9.6408242e-01 4.3821228e+01 
-1.9739023e-01 6.6468561e-01 4.4200001e+01 
-2.9444304e-01 7.8727525e-01 4.3879974e+01 
-8.7554991e-02 7.5255024e-01 4.4042213e+01 
-1.6445170e-01 6.4084798e-01 4.4041008e+01 
-3.2357255e-01 9.1726828e-01 4.3757431e+01 
-3.9587301e-01 8.5463828e-01 4.3755711e+01 
-2.0429766e-01 8.4651643e-01 4.3813354e+01 
-2.8633916e-01 7.3175091e-01 4.3809875e+01 
-2.6899619e-02 6.8901783e-01 4.4200001e+01 
-1.0567340e-01 7.7152997e-01 4.3875790e+01 
-4.3633053e-01 9.6407831e-01 4.3693161e+01 
-8.7133333e-02 5.9509218e-01 4.4200001e+01 
-1.8777622e-01 6.5475601e-01 4.3873402e+01 
-2.0131156e-01 8.4642249e-01 4.3679543e+01 
-3.2225290e-01 9.1755641e-01 4.3628902e+01 
-3.9584404e-01 8.5419410e-01 4.3627178e+01 
-1.0114321e-03 6.6670936e-01 4.3939713e+01 
-2.8492665e-01 7.2954547e-01 4.3675007e+01 
-1.0131179e-01 7.7015632e-01 4.3743176e+01 
-6.0682178e-02 5.7631296e-01 4.3938457e+01 
3.9444737e-02 6.2338209e-01 4.4053139e+01 
-1.8470748e-01 6.5131217e-01 4.3739727e+01 
-7.0938184e-03 5.4737431e-01 4.4052326e+01 
-4.3632981e-01 9.6407413e-01 4.3564159e+01 
7.6947339e-02 5.8804804e-01 4.4200001e+01 
-1.2721874e-02 6.8194175e-01 4.3817982e+01 
-7.7214435e-02 5.8474159e-01 4.3819649e+01 
4.0195532e-02 5.2425718e-01 4.4200001e+01 
-1.9826968e-01 8.4632379e-01 4.3543118e+01 
-9.6842363e-02 7.6872379e-01 4.3607994e+01 
-3.2091641e-01 9.1783977e-01 4.3499420e+01 
-3.9580306e-01 8.5372573e-01 4.3497700e+01 
-2.8348783e-01 7.2729832e-01 4.3537586e+01 
-1.8155001e-01 6.4778340e-01 4.3603539e+01 
1.5678726e-01 5.2239102e-01 4.4060219e+01 
1.0298219e-02 6.6009766e-01 4.3674484e+01 
1.3250886e-01 4.7546524e-01 4.4058990e+01 
-4.3632913e-01 9.6407002e-01 4.3434200e+01 
-5.0139543e-02 5.6696451e-01 4.3671154e+01 
1.3504514e-01 5.4209155e-01 4.3856747e+01 
1.0361936e-01 4.8715758e-01 4.3855240e+01 
2.0846681e-01 4.8028421e-01 4.4200001e+01 
1.9279444e-01 4.4799727e-01 4.4200001e+01 
-9.2261828e-02 7.6722860e-01 4.3470158e+01 
-1.4701239e-03 6.7547697e-01 4.3552124e+01 
-1.9517080e-01 8.4621930e-01 4.3403992e+01 
-3.1956279e-01 9.1811794e-01 4.3368977e+01 
-3.9574999e-01 8.5323322e-01 4.3367252e+01 
-1.7830023e-01 6.4416617e-01 4.3464752e+01 
-6.7131944e-02 5.7555372e-01 4.3547829e+01 
-2.8202194e-01 7.2500783e-01 4.3397518e+01 
-4.3632844e-01 9.6406585e-01 4.3303261e+01 
1.5138821e-01 5.3037512e-01 4.3609200e+01 
1.2119007e-01 4.7490793e-01 4.3606068e+01 
-8.7566733e-02 7.6566672e-01 4.3329563e+01 
-1.7495437e-01 6.4045686e-01 4.3323273e+01 
-3.1819177e-01 9.1839045e-01 4.3237537e+01 
-3.9568463e-01 8.5271639e-01 4.3235813e+01 
2.2269404e-02 6.5294570e-01 4.3398811e+01 
-1.9201367e-01 8.4610778e-01 4.3262066e+01 
-3.8899176e-02 5.5709696e-01 4.3393635e+01 
-2.8052819e-01 7.2267252e-01 4.3254715e+01 
3.7877345e-01 3.8273901e-01 4.4200001e+01 
-4.3632776e-01 9.6406174e-01 4.3171322e+01 
3.9241230e-01 3.7329337e-01 4.3965439e+01 
1.0283732e-02 6.6872352e-01 4.3271511e+01 
-5.6385640e-02 5.6585240e-01 4.3265472e+01 
-8.2753494e-02 7.6403379e-01 4.3186119e+01 
-4.0345609e-01 8.6371827e-01 4.3104889e+01 
-3.1680310e-01 9.1865683e-01 4.3105087e+01 
-1.7150842e-01 6.3665158e-01 4.3179005e+01 
-1.8879703e-01 8.4598809e-01 4.3117241e+01 
-2.7900568e-01 7.2029078e-01 4.3109074e+01 
4.0610775e-01 3.6380205e-01 4.3729839e+01 
1.6776134e-01 5.1882964e-01 4.3331150e+01 
-4.3632707e-01 9.6405768e-01 4.3038357e+01 
1.4031014e-01 4.6124566e-01 4.3307755e+01 
3.4952711e-02 6.4519531e-01 4.3111935e+01 
-7.7818394e-02 7.6232505e-01 4.3039719e+01 
-3.1539652e-01 9.1891652e-01 4.2971603e+01 
-3.9551663e-01 8.5160977e-01 4.2969879e+01 
-2.6899155e-02 5.4666573e-01 4.3105160e+01 
-1.6795819e-01 6.3274628e-01 4.3031849e+01 
-1.8551964e-01 8.4585863e-01 4.2969406e+01 
4.1985780e-01 3.5425979e-01 4.3493168e+01 
-2.7745360e-01 7.1786088e-01 4.2960495e+01 
-4.3632638e-01 9.6405357e-01 4.2904346e+01 
2.2723136e-02 6.6139150e-01 4.2979332e+01 
-4.4916678e-02 5.5559248e-01 4.2971806e+01 
-3.1397179e-01 9.1916907e-01 4.2837063e+01 
-3.9541367e-01 8.5101974e-01 4.2835335e+01 
-7.2757579e-02 7.6053542e-01 4.2890255e+01 
-1.6429928e-01 6.2873662e-01 4.2881699e+01 
1.8463810e-01 5.0694346e-01 4.3035332e+01 
-1.8218029e-01 8.4571803e-01 4.2818455e+01 
1.5503895e-01 4.5003417e-01 4.3027725e+01 
-2.7587104e-01 7.1538109e-01 4.2808868e+01 
4.3366045e-01 3.4466109e-01 4.3255390e+01 
-4.3632573e-01 9.6404958e-01 4.2769268e+01 
-3.8429454e-01 8.3484912e-01 4.2710606e+01 
-3.1252861e-01 9.1941386e-01 4.2701439e+01 
4.8404284e-02 6.3678014e-01 4.2813030e+01 
-1.4070326e-02 5.3562075e-01 4.2804932e+01 
-6.7567028e-02 7.5865942e-01 4.2737610e+01 
-1.6052702e-01 6.2461799e-01 4.2728443e+01 
-1.7877772e-01 8.4556442e-01 4.2664265e+01 
-4.3632504e-01 9.6404558e-01 4.2633099e+01 
-2.7425703e-01 7.1284944e-01 4.2654083e+01 
4.4751364e-01 3.3500037e-01 4.3016472e+01 
3.5901129e-02 6.5341437e-01 4.2674721e+01 
-3.7959340e-01 8.2794034e-01 4.2568317e+01 
-3.1106678e-01 9.1965032e-01 4.2564713e+01 
-3.2659348e-02 5.4472327e-01 4.2665997e+01 
2.0396979e-01 4.9291667e-01 4.2740131e+01 
-6.2242586e-02 7.5669110e-01 4.2581669e+01 
1.7765003e-01 4.3475360e-01 4.2732578e+01 
-1.5663649e-01 6.2038553e-01 4.2571964e+01 
-4.3632439e-01 9.6404165e-01 4.2495808e+01 
-1.7531081e-01 8.4539592e-01 4.2506718e+01 
-2.7261066e-01 7.1026409e-01 4.2496017e+01 
-3.0958602e-01 9.1987789e-01 4.2426853e+01 
-3.7859210e-01 8.2613736e-01 4.2421188e+01 
4.6141517e-01 3.2527190e-01 4.2776375e+01 
6.2686495e-02 6.2762415e-01 4.2501175e+01 
-3.3570320e-04 5.2390522e-01 4.2492062e+01 
-5.6779940e-02 7.5462401e-01 4.2422298e+01 
-4.3632373e-01 9.6403772e-01 4.2357380e+01 
-1.5262254e-01 6.1603409e-01 4.2412144e+01 
-1.7177837e-01 8.4521037e-01 4.2345684e+01 
-2.7093092e-01 7.0762289e-01 4.2334549e+01 
-3.0808610e-01 9.2009580e-01 4.2287842e+01 
-3.8275370e-01 8.3137155e-01 4.2275047e+01 
4.9876589e-02 6.4471585e-01 4.2356720e+01 
-1.9539909e-02 5.3318781e-01 4.2347118e+01 
-4.3632311e-01 9.6403396e-01 4.2217781e+01 
2.1959943e-01 4.8236796e-01 4.2385345e+01 
-5.1174615e-02 7.5245124e-01 4.2259373e+01 
1.9034323e-01 4.2346162e-01 4.2378918e+01 
-1.4847966e-01 6.1155808e-01 4.2248856e+01 
4.7536272e-01 3.1546980e-01 4.2535065e+01 
-1.6817927e-01 8.4500539e-01 4.2181026e+01 
-2.6921678e-01 7.0492369e-01 4.2169544e+01 
-3.0656675e-01 9.2030340e-01 4.2147648e+01 
-3.9470181e-01 8.4769493e-01 4.2145920e+01 
7.7868804e-02 6.1763972e-01 4.2175373e+01 
-4.3632248e-01 9.6403021e-01 4.2076988e+01 
1.4390758e-02 5.1145434e-01 4.2165581e+01 
-4.5421973e-02 7.5016522e-01 4.2092751e+01 
-1.4420210e-01 6.0695171e-01 4.2081959e+01 
-3.0502778e-01 9.2049998e-01 4.2006248e+01 
-4.0175444e-01 8.5747409e-01 4.2004128e+01 
-1.6451253e-01 8.4477836e-01 4.2012604e+01 
4.8935395e-01 3.0558801e-01 4.2292507e+01 
-2.6746723e-01 7.0216429e-01 4.2000870e+01 
6.4714879e-02 6.3520777e-01 4.2024277e+01 
-4.3632188e-01 9.6402657e-01 4.1934975e+01 
-5.4755262e-03 5.2092212e-01 4.2014156e+01 
-2.3078828e-01 8.1064087e-01 4.1931458e+01 
2.3550548e-01 4.7116494e-01 4.2073269e+01 
2.0610523e-01 4.1123796e-01 4.2066772e+01 
-3.9517213e-02 7.4775779e-01 4.1922287e+01 
-1.3978374e-01 6.0220873e-01 4.1911320e+01 
-3.0346894e-01 9.2068475e-01 4.1863613e+01 
-3.9432141e-01 8.4618556e-01 4.1861881e+01 
-1.6077711e-01 8.4452641e-01 4.1840263e+01 
-2.6568118e-01 6.9934219e-01 4.1828377e+01 
-4.3632129e-01 9.6402299e-01 4.1791718e+01 
5.0338638e-01 2.9562023e-01 4.2048656e+01 
9.4028555e-02 6.0672593e-01 4.1834507e+01 
3.0205652e-02 4.9819478e-01 4.1824417e+01 
-3.8116732e-01 8.2744831e-01 4.1725647e+01 
-3.0189002e-01 9.2085695e-01 4.1719719e+01 
-3.3455357e-02 7.4522001e-01 4.1747829e+01 
-1.3521814e-01 5.9732240e-01 4.1736786e+01 
-4.3632072e-01 9.6401960e-01 4.1647179e+01 
-1.5697217e-01 8.4424627e-01 4.1663853e+01 
-2.6385748e-01 6.9645494e-01 4.1651920e+01 
8.0488607e-02 6.2478805e-01 4.1676235e+01 
2.6870471e-01 4.4547972e-01 4.1752304e+01 
9.6269641e-03 5.0785345e-01 4.1665993e+01 
2.4764967e-01 3.8646612e-01 4.1743168e+01 
-3.0029076e-01 9.2101562e-01 4.1574532e+01 
-3.9388368e-01 8.4456980e-01 4.1572796e+01 
5.1745731e-01 2.8556010e-01 4.1803486e+01 
-2.7231261e-02 7.4254233e-01 4.1569210e+01 
-1.3049847e-01 5.9228569e-01 4.1558201e+01 
-4.3632016e-01 9.6401632e-01 4.1501339e+01 
-1.5309690e-01 8.4393430e-01 4.1483204e+01 
-2.6199502e-01 6.9349992e-01 4.1471333e+01 
-2.9867104e-01 9.2115986e-01 4.1428024e+01 
-3.9364263e-01 8.4372103e-01 4.1426289e+01 
1.1125199e-01 5.9476525e-01 4.1477348e+01 
4.7217656e-02 4.8404291e-01 4.1467384e+01 
-4.3631962e-01 9.6401310e-01 4.1354160e+01 
-2.0839609e-02 7.3971421e-01 4.1386261e+01 
-1.2561750e-01 5.8709091e-01 4.1375404e+01 
5.3156406e-01 2.7540097e-01 4.1556946e+01 
-1.4915068e-01 8.4358656e-01 4.1298138e+01 
-2.9703063e-01 9.2128879e-01 4.1280167e+01 
-3.9338648e-01 8.4284443e-01 4.1278431e+01 
-2.6009262e-01 6.9047421e-01 4.1286449e+01 
2.9365057e-01 4.2687622e-01 4.1391586e+01 
9.7278498e-02 6.1333776e-01 4.1311302e+01 
2.7470219e-01 3.6807936e-01 4.1382729e+01 
2.5872495e-02 4.9389899e-01 4.1301384e+01 
-4.3631911e-01 9.6401012e-01 4.1205620e+01 
-1.4274905e-02 7.3672432e-01 4.1198803e+01 
-1.2056758e-01 5.8173001e-01 4.1188221e+01 
-2.9536936e-01 9.2140132e-01 4.1130928e+01 
[...]
POINT_DATA 4496
FIELD FieldData 5
DISPLACEMENT 3 4496  float
7.8070144e-07 9.6589804e-07 -2.2974174e-08 
7.6521587e-07 9.4527212e-07 -2.2969125e-08 
8.7687209e-07 1.1811607e-06 -2.8743344e-08 
1.0123827e-06 1.0614878e-06 -8.9445109e-09 
9.6089457e-07 1.0104739e-06 -1.0109055e-08 
8.4633024e-07 1.1414744e-06 -2.8798587e-08 
7.4968256e-07 9.2460721e-07 -2.2957291e-08 
1.0006889e-06 1.3848467e-06 -3.1348744e-08 
1.2044335e-06 1.2395021e-06 -3.8132972e-09 
9.8515886e-07 1.3692733e-06 -3.1679058e-08 
1.1924951e-06 1.2209439e-06 -3.6277292e-09 
9.4601393e-07 9.8974192e-07 -1.0039164e-08 
8.3018392e-07 1.1230991e-06 -2.9013105e-08 
9.6938243e-07 1.3533719e-06 -3.2003747e-08 
1.1302043e-06 1.5595479e-06 -3.1562010e-08 
1.1803210e-06 1.2021225e-06 -3.4689769e-09 
7.3411792e-07 9.0389693e-07 -2.2943269e-08 
1.3422317e-06 1.4140420e-06 -3.2372585e-09 
1.0726075e-06 1.1792921e-06 -1.1434738e-08 
1.1578142e-06 1.5939573e-06 -3.1425248e-08 
1.3671286e-06 1.4495087e-06 -3.3850380e-09 
8.1405585e-07 1.1046823e-06 -2.9137645e-08 
9.3110179e-07 9.6901067e-07 -1.0012898e-08 
9.5336389e-07 1.3372209e-06 -3.2337475e-08 
1.1679335e-06 1.1829933e-06 -3.3000531e-09 
1.2966501e-06 1.7339497e-06 -2.8509843e-08 
1.1015841e-06 1.5323702e-06 -3.2267675e-08 
7.1868465e-07 8.8315562e-07 -2.2907052e-08 
1.4728986e-06 1.6209530e-06 -5.3997762e-09 
1.3201023e-06 1.3780821e-06 -2.7960774e-09 
9.3715124e-07 1.3208121e-06 -3.2654953e-08 
7.9793807e-07 1.0862269e-06 -2.9325987e-08 
9.1624383e-07 9.4832689e-07 -1.0041766e-08 
1.3060315e-06 1.7392239e-06 -2.8070799e-08 
1.1553002e-06 1.1635883e-06 -3.1471101e-09 
1.0877517e-06 1.5185525e-06 -3.2557857e-08 
1.4753563e-06 1.6271192e-06 -5.5482898e-09 
1.4014670e-06 1.8340947e-06 -2.5946655e-08 
1.3097999e-06 1.3617878e-06 -2.6301623e-09 
1.5440077e-06 1.7466324e-06 -7.4133863e-09 
7.0315957e-07 8.6257143e-07 -2.2892220e-08 
1.4862152e-06 1.9290756e-06 -2.4759036e-08 
1.2622689e-06 1.6969469e-06 -2.9132655e-08 
1.4445937e-06 1.5763724e-06 -4.8831406e-09 
1.6060270e-06 1.8600759e-06 -9.4644976e-09 
9.2067847e-07 1.3040736e-06 -3.2967442e-08 
1.0737485e-06 1.5044998e-06 -3.2835782e-08 
7.8183660e-07 1.0678137e-06 -2.9451806e-08 
9.0139895e-07 9.2762701e-07 -9.9462119e-09 
1.1425334e-06 1.1439450e-06 -3.0077201e-09 
1.2993746e-06 1.3452749e-06 -2.4528199e-09 
1.5919379e-06 2.0556524e-06 -2.3856609e-08 
1.2852362e-06 1.7160423e-06 -2.8400420e-08 
1.6798904e-06 2.0098544e-06 -1.2868405e-08 
6.8775068e-07 8.4180971e-07 -2.2850918e-08 
1.4591409e-06 1.6023579e-06 -5.3060494e-09 
1.5292602e-06 1.9805032e-06 -2.4448243e-08 
1.6320618e-06 1.9213244e-06 -1.1156881e-08 
1.6887540e-06 2.1763879e-06 -2.3313763e-08 
1.7494206e-06 2.1469448e-06 -1.5826963e-08 
1.0596073e-06 1.4902038e-06 -3.3149608e-08 
1.2412206e-06 1.6735743e-06 -2.9429058e-08 
9.0402818e-07 1.2871525e-06 -3.3297393e-08 
7.6569262e-07 1.0493229e-06 -2.9662417e-08 
8.8657367e-07 9.0696636e-07 -9.9575876e-09 
1.2887828e-06 1.3286035e-06 -2.3219195e-09 
1.4274518e-06 1.5500793e-06 -4.6775694e-09 
1.1294892e-06 1.1239869e-06 -2.8953022e-09 
6.7228342e-07 8.2114229e-07 -2.2869866e-08 
1.5198240e-06 1.9690924e-06 -2.4574005e-08 
1.6231717e-06 1.9120889e-06 -1.1259190e-08 
1.0453189e-06 1.4757449e-06 -3.3385167e-08 
1.2780049e-06 1.3116614e-06 -2.1560342e-09 
7.4966823e-07 1.0309356e-06 -2.9794169e-08 
8.7185805e-07 8.8632714e-07 -1.0024753e-08 
1.2641974e-06 1.6922206e-06 -2.8671247e-08 
8.8717013e-07 1.2698839e-06 -3.3582555e-08 
1.4424620e-06 1.5771332e-06 -5.0722373e-09 
1.1162473e-06 1.1037713e-06 -2.7687750e-09 
1.8721437e-06 2.4965768e-06 -2.8390843e-08 
6.5684253e-07 8.0042906e-07 -2.2897710e-08 
1.8598543e-06 2.4819706e-06 -2.8514807e-08 
1.2189538e-06 1.6485579e-06 -2.9709623e-08 
1.4098574e-06 1.5232680e-06 -4.4319242e-09 
1.0309290e-06 1.4610110e-06 -3.3665636e-08 
8.3565180e-07 8.5121610e-07 -1.0980770e-08 
7.3346160e-07 1.0123618e-06 -2.9993906e-08 
1.2671579e-06 1.2946246e-06 -2.0177173e-09 
8.7015331e-07 1.2524483e-06 -3.3893148e-08 
1.1029734e-06 1.0833916e-06 -2.5968812e-09 
1.8472116e-06 2.4669046e-06 -2.8623598e-08 
1.5059260e-06 1.9522574e-06 -2.4690763e-08 
6.4136168e-07 7.7987369e-07 -2.2923853e-08 
1.6102719e-06 1.8970879e-06 -1.1308397e-08 
1.2429504e-06 1.6676802e-06 -2.8914688e-08 
1.0164167e-06 1.4461032e-06 -3.3890199e-08 
7.1756875e-07 9.9394572e-07 -3.0073934e-08 
8.4227020e-07 8.4497015e-07 -9.9905000e-09 
1.4253146e-06 1.5514684e-06 -4.8237441e-09 
1.2560730e-06 1.2772929e-06 -1.8525029e-09 
8.5291788e-07 1.2346364e-06 -3.4144101e-08 
1.8341705e-06 2.4508647e-06 -2.8741654e-08 
1.0893251e-06 1.0626513e-06 -2.4848776e-09 
6.2620876e-07 7.5911089e-07 -2.2895417e-08 
1.1964815e-06 1.6227767e-06 -2.9964340e-08 
1.3917854e-06 1.4959872e-06 -4.2165960e-09 
7.0161906e-07 9.7549253e-07 -3.0331346e-08 
8.2764564e-07 8.2439857e-07 -1.0060733e-08 
1.0017728e-06 1.4308912e-06 -3.4163342e-08 
1.2449154e-06 1.2598983e-06 -1.7475151e-09 
1.4902540e-06 1.9328386e-06 -2.4848239e-08 
8.3545251e-07 1.2164872e-06 -3.4394585e-08 
1.5949159e-06 1.8765965e-06 -1.1227274e-08 
1.0756406e-06 1.0417981e-06 -2.4695441e-09 
1.8208142e-06 2.4344263e-06 -2.9072648e-08 
6.1081749e-07 7.3872337e-07 -2.2870049e-08 
8.4297261e-07 8.2592834e-07 -8.7797680e-09 
6.8576441e-07 9.5720588e-07 -3.0354862e-08 
1.2215481e-06 1.6424804e-06 -2.9146436e-08 
1.4076884e-06 1.5254652e-06 -4.6526263e-09 
9.8692021e-07 1.4155294e-06 -3.4395669e-08 
1.2335116e-06 1.2422587e-06 -1.5864348e-09 
8.1790148e-07 1.1982652e-06 -3.4610856e-08 
5.9564309e-07 7.1828077e-07 -2.2811948e-08 
1.0616957e-06 1.0204593e-06 -2.4141640e-09 
1.8068966e-06 2.4170329e-06 -2.9203051e-08 
1.1738366e-06 1.5963465e-06 -3.0197782e-08 
8.3940012e-07 8.1304069e-07 -8.1882483e-09 
6.7001588e-07 9.3882198e-07 -3.0273828e-08 
1.3732185e-06 1.4683723e-06 -4.0756913e-09 
1.4783238e-06 1.9176096e-06 -2.4933247e-08 
9.7219515e-07 1.3999961e-06 -3.4690572e-08 
1.5846838e-06 1.8677272e-06 -1.1464573e-08 
1.2221136e-06 1.2245209e-06 -1.7137067e-09 
5.8072317e-07 6.9779941e-07 -2.2661144e-08 
8.0010631e-07 1.1798527e-06 -3.4912830e-08 
1.0475213e-06 9.9913541e-07 -2.3955591e-09 
6.5421204e-07 9.2061532e-07 -3.0454416e-08 
8.2588616e-07 7.9307006e-07 -8.1897404e-09 
1.7928511e-06 2.3994655e-06 -2.9257825e-08 
1.2001486e-06 1.6167704e-06 -2.9270224e-08 
1.3897380e-06 1.4992761e-06 -4.4844959e-09 
9.5732048e-07 1.3843579e-06 -3.4724419e-08 
5.6570258e-07 6.7770503e-07 -2.2654385e-08 
1.2105083e-06 1.2066106e-06 -1.6882848e-09 
7.8225287e-07 1.1611642e-06 -3.5047279e-08 
1.0332466e-06 9.7766190e-07 -2.3818016e-09 
6.3869516e-07 9.0258874e-07 -3.0532238e-08 
7.9985631e-07 7.6408747e-07 -8.7233278e-09 
1.1513147e-06 1.5693334e-06 -3.0337755e-08 
1.3545859e-06 1.4405871e-06 -3.8925108e-09 
5.5092130e-07 6.5779125e-07 -2.2607617e-08 
1.4524898e-06 1.8853967e-06 -2.5074868e-08 
9.4245007e-07 1.3686413e-06 -3.4766561e-08 
1.5596762e-06 1.8306771e-06 -1.1303738e-08 
1.1988620e-06 1.1888017e-06 -1.6876870e-09 
1.7787250e-06 2.3814921e-06 -2.9279642e-08 
7.6430058e-07 1.1423126e-06 -3.5188343e-08 
1.0187675e-06 9.5599717e-07 -2.3844742e-09 
6.2350216e-07 8.8490128e-07 -3.0526209e-08 
7.5599087e-07 7.2380959e-07 -1.0112025e-08 
1.1791109e-06 1.5909912e-06 -2.9308570e-08 
5.3622597e-07 6.3788883e-07 -2.2597437e-08 
1.3718748e-06 1.4734339e-06 -4.5802997e-09 
9.2763207e-07 1.3528619e-06 -3.4816594e-08 
1.1874163e-06 1.1709709e-06 -1.6442789e-09 
6.0790563e-07 8.6691858e-07 -3.0733094e-08 
7.2240107e-07 6.9058433e-07 -1.0914298e-08 
7.4628446e-07 1.1233559e-06 -3.5346378e-08 
1.7643579e-06 2.3628918e-06 -2.9346099e-08 
1.0045711e-06 9.3449546e-07 -2.2949698e-09 
1.1293253e-06 1.5426078e-06 -3.0342722e-08 
5.2106310e-07 6.1793850e-07 -2.2610346e-08 
1.3360809e-06 1.4133250e-06 -3.9705466e-09 
7.9960478e-07 9.9086742e-07 -2.2638767e-08 
1.4338488e-06 1.8616184e-06 -2.5164367e-08 
1.5421465e-06 1.8070218e-06 -1.1419822e-08 
9.1293225e-07 1.3371995e-06 -3.4929151e-08 
1.1759158e-06 1.1532717e-06 -1.6059829e-09 
5.9223549e-07 8.4878093e-07 -3.0735727e-08 
7.2719473e-07 6.8366762e-07 -1.0163558e-08 
7.2813776e-07 1.1046070e-06 -3.5494576e-08 
9.9042973e-07 9.1270198e-07 -2.3403337e-09 
5.0631024e-07 5.9798913e-07 -2.2492101e-08 
1.7501221e-06 2.3444545e-06 -2.9479832e-08 
1.1587719e-06 1.5655374e-06 -2.9303798e-08 
1.3542743e-06 1.4482091e-06 -4.7533604e-09 
7.4697579e-07 6.8863551e-07 -8.7041396e-09 
5.7730438e-07 8.3135512e-07 -3.0607517e-08 
8.9817917e-07 1.3213447e-06 -3.5000593e-08 
1.1643685e-06 1.1354143e-06 -1.5623307e-09 
4.9206039e-07 5.7823922e-07 -2.2307093e-08 
7.1003939e-07 1.0854199e-06 -3.5669817e-08 
9.7569148e-07 8.9062684e-07 -2.4051126e-09 
1.1079053e-06 1.5161480e-06 -3.0210767e-08 
1.4407211e-06 1.8681566e-06 -2.4940295e-08 
1.3176593e-06 1.3865883e-06 -4.2258459e-09 
1.5461183e-06 1.8285517e-06 -1.2592901e-08 
5.6225474e-07 8.1389322e-07 -3.0804305e-08 
7.0003171e-07 6.4502734e-07 -1.0074995e-08 
1.7364566e-06 2.3267164e-06 -2.9504099e-08 
8.8353192e-07 1.3053631e-06 -3.5133919e-08 
1.1528657e-06 1.1177664e-06 -1.7069405e-09 
4.7780418e-07 5.5902933e-07 -2.2265084e-08 
6.9183460e-07 1.0661236e-06 -3.5639541e-08 
9.6103656e-07 8.6873166e-07 -2.6038167e-09 
5.4762660e-07 7.9671867e-07 -3.0763804e-08 
6.8650576e-07 6.2607347e-07 -1.0360549e-08 
1.1391850e-06 1.5403456e-06 -2.9184157e-08 
1.3369518e-06 1.4238229e-06 -4.8011741e-09 
4.6344601e-07 5.4025452e-07 -2.2227578e-08 
8.6900167e-07 1.2894866e-06 -3.5059369e-08 
1.1413961e-06 1.1001010e-06 -1.7125265e-09 
1.7229822e-06 2.3087923e-06 -2.9360491e-08 
6.7364209e-07 1.0470005e-06 -3.5465504e-08 
5.3298504e-07 7.7996270e-07 -3.0528586e-08 
6.7314784e-07 6.0721965e-07 -1.0234944e-08 
9.4664040e-07 8.4676816e-07 -2.6235805e-09 
1.4303014e-06 1.8537725e-06 -2.4814650e-08 
1.0874194e-06 1.4897053e-06 -3.0215610e-08 
1.5344848e-06 1.8184560e-06 -1.3035612e-08 
1.2998470e-06 1.3605974e-06 -4.2107255e-09 
4.4973569e-07 5.2106401e-07 -2.2127365e-08 
8.5475858e-07 1.2738755e-06 -3.5097028e-08 
1.1298644e-06 1.0825006e-06 -1.7737560e-09 
5.1866976e-07 7.6304042e-07 -3.0617215e-08 
6.6014633e-07 5.8867079e-07 -1.0452029e-08 
6.5578882e-07 1.0276875e-06 -3.5766224e-08 
9.3203505e-07 8.2514936e-07 -2.7933771e-09 
1.7096205e-06 2.2908428e-06 -2.9419706e-08 
4.3580712e-07 5.0288543e-07 -2.2046695e-08 
1.1207118e-06 1.5156568e-06 -2.8954735e-08 
1.3200869e-06 1.4000259e-06 -5.2218647e-09 
5.0440059e-07 7.4653241e-07 -3.0671245e-08 
6.4724969e-07 5.7047373e-07 -1.0380926e-08 
8.4057064e-07 1.2577536e-06 -3.5113850e-08 
1.1186813e-06 1.0653260e-06 -1.8935056e-09 
4.2257213e-07 4.8426966e-07 -2.2020606e-08 
6.3789997e-07 1.0085649e-06 -3.5423831e-08 
9.1737598e-07 8.0315732e-07 -2.8640026e-09 
1.4213473e-06 1.8408119e-06 -2.4805965e-08 
1.5238770e-06 1.8099371e-06 -1.3427141e-08 
1.1120197e-06 1.5034221e-06 -2.8697469e-08 
1.6970317e-06 2.2736899e-06 -2.9401846e-08 
4.9082718e-07 7.3029418e-07 -3.0609176e-08 
6.3469076e-07 5.5263558e-07 -1.0768884e-08 
1.3117447e-06 1.3889329e-06 -5.1353797e-09 
8.2682487e-07 1.2423819e-06 -3.4867625e-08 
1.1074532e-06 1.0480160e-06 -2.1680451e-09 
4.0902813e-07 4.6667307e-07 -2.1920403e-08 
6.1984144e-07 9.8914370e-07 -3.5353850e-08 
9.0336266e-07 7.8159815e-07 -3.1990945e-09 
4.7715787e-07 7.1478274e-07 -3.0324252e-08 
6.2220937e-07 5.3505642e-07 -1.0621093e-08 
1.1037695e-06 1.4915495e-06 -2.8515307e-08 
7.9229636e-07 8.2488202e-07 -1.3892205e-08 
1.3039479e-06 1.3782701e-06 -5.5969536e-09 
3.9599345e-07 4.4855096e-07 -2.1738487e-08 
1.6844368e-06 2.2558054e-06 -2.9352904e-08 
1.3877069e-06 1.7971794e-06 -2.4831447e-08 
8.1344228e-07 1.2270008e-06 -3.4481388e-08 
1.4894455e-06 1.7482184e-06 -1.2690135e-08 
1.0967008e-06 1.0317666e-06 -2.3624822e-09 
4.6353426e-07 6.9879849e-07 -2.9929364e-08 
6.0975356e-07 5.1746480e-07 -1.0742112e-08 
6.0301431e-07 9.7078851e-07 -3.4916116e-08 
8.8908479e-07 7.6072143e-07 -3.7071040e-09 
3.8302372e-07 4.3156302e-07 -2.1623574e-08 
1.0962262e-06 1.4804074e-06 -2.8585349e-08 
1.2964937e-06 1.3680136e-06 -5.7268181e-09 
8.0058538e-07 1.2122480e-06 -3.4427430e-08 
4.5076760e-07 6.8374322e-07 -2.9654586e-08 
5.9826397e-07 5.0091319e-07 -1.0886059e-08 
1.0859992e-06 1.0155851e-06 -2.3700750e-09 
1.6715626e-06 2.2387396e-06 -2.9633119e-08 
5.8565809e-07 9.5233537e-07 -3.4845716e-08 
3.7072095e-07 4.1496361e-07 -2.1431678e-08 
1.5302858e-06 1.8442719e-06 -1.6193026e-08 
1.4634111e-06 1.8921770e-06 -2.4966337e-08 
8.7514343e-07 7.3984012e-07 -3.8186374e-09 
1.0891670e-06 1.4698717e-06 -2.8166724e-08 
1.2893040e-06 1.3584364e-06 -6.1742829e-09 
4.3818577e-07 6.6902487e-07 -2.9508582e-08 
5.8676687e-07 4.8476852e-07 -1.1036717e-08 
7.8800412e-07 1.1976242e-06 -3.4348634e-08 
1.0759744e-06 9.9994099e-07 -2.6168401e-09 
3.5850022e-07 3.9872401e-07 -2.1202517e-08 
1.6597151e-06 2.2214938e-06 -2.9297382e-08 
5.6855725e-07 9.3396068e-07 -3.4755868e-08 
8.6154932e-07 7.1919220e-07 -4.0498112e-09 
4.2543530e-07 6.5450939e-07 -2.9337109e-08 
5.7505781e-07 4.6877108e-07 -1.1137660e-08 
1.5196855e-06 1.8292620e-06 -1.6369595e-08 
1.4531222e-06 1.8776936e-06 -2.4898162e-08 
1.0802630e-06 1.4574797e-06 -2.7820795e-08 
1.2797348e-06 1.3446949e-06 -6.4786363e-09 
6.7959343e-07 7.5503903e-07 -1.7927427e-08 
3.4686519e-07 3.8260950e-07 -2.1062109e-08 
7.7181124e-07 1.1795795e-06 -3.4182200e-08 
1.0609792e-06 9.7715485e-07 -3.2104248e-09 
4.1203214e-07 6.3632166e-07 -2.8895439e-08 
5.6105483e-07 4.5148980e-07 -1.1637209e-08 
5.5277684e-07 9.1633359e-07 -3.4152158e-08 
1.6488265e-06 2.2055940e-06 -2.8867042e-08 
8.4825780e-07 6.9992097e-07 -4.6096855e-09 
3.3545697e-07 3.6827842e-07 -2.1020293e-08 
1.0569993e-06 1.4315641e-06 -2.7916681e-08 
1.2601980e-06 1.3118411e-06 -6.3376495e-09 
1.5107061e-06 1.8169158e-06 -1.6235250e-08 
1.4446031e-06 1.8654061e-06 -2.4521539e-08 
6.5956317e-07 7.2970215e-07 -1.8061256e-08 
3.9959750e-07 6.1954239e-07 -2.8243820e-08 
7.5070557e-07 1.1565598e-06 -3.3755036e-08 
5.4781538e-07 4.3510283e-07 -1.1718671e-08 
1.0444585e-06 9.5181883e-07 -3.6091161e-09 
3.2522436e-07 3.5377440e-07 -2.0744128e-08 
5.3835572e-07 9.0019779e-07 -3.3835686e-08 
8.3582330e-07 6.8220140e-07 -4.9886633e-09 
1.6383054e-06 2.1896305e-06 -2.8622614e-08 
1.0294166e-06 1.4027227e-06 -2.8208811e-08 
1.2407501e-06 1.2790738e-06 -6.4976926e-09 
3.8704806e-07 6.0290040e-07 -2.8262738e-08 
5.3485712e-07 4.1938654e-07 -1.1966200e-08 
1.3437481e-06 1.7356780e-06 -2.4457112e-08 
1.4430855e-06 1.6815811e-06 -1.3434760e-08 
7.3098039e-07 1.1349384e-06 -3.3565644e-08 
1.0288776e-06 9.2767027e-07 -3.7793093e-09 
6.3906771e-07 7.0266123e-07 -1.7860321e-08 
3.1504831e-07 3.4035935e-07 -2.0770706e-08 
8.2421332e-07 6.6502150e-07 -5.0613278e-09 
5.2429789e-07 8.8432853e-07 -3.3462825e-08 
3.7561696e-07 5.8695383e-07 -2.8141644e-08 
5.2234714e-07 4.0437516e-07 -1.2050559e-08 
1.2221257e-06 1.2475285e-06 -6.3903625e-09 
1.0033269e-06 1.3752763e-06 -2.8626994e-08 
1.6283632e-06 2.1750295e-06 -2.8652977e-08 
3.0459688e-07 3.2718785e-07 -2.0746498e-08 
1.0137240e-06 9.0485656e-07 -3.8476382e-09 
7.1204084e-07 1.1146390e-06 -3.3472649e-08 
1.4295595e-06 1.8437185e-06 -2.5044505e-08 
1.4419771e-06 1.6860446e-06 -1.4670642e-08 
3.6380001e-07 5.7114994e-07 -2.7607062e-08 
5.0085811e-07 3.8243144e-07 -1.2213669e-08 
8.1376061e-07 6.4865014e-07 -4.9218412e-09 
5.1101256e-07 8.7052172e-07 -3.3396347e-08 
5.7171616e-07 6.3815639e-07 -1.8750839e-08 
2.9492196e-07 3.1355944e-07 -2.0341156e-08 
1.2038474e-06 1.2176265e-06 -6.8922277e-09 
1.0815332e-06 1.4426238e-06 -2.7262333e-08 
9.9924432e-07 8.8349248e-07 -4.5342903e-09 
6.9436982e-07 1.0950172e-06 -3.3326128e-08 
3.5261991e-07 5.5574014e-07 -2.7126857e-08 
1.6199119e-06 2.1623339e-06 -2.8623340e-08 
4.9807517e-07 3.7436624e-07 -1.2112060e-08 
6.8835789e-07 7.3730786e-07 -1.6476944e-08 
1.4332810e-06 1.6726427e-06 -1.4247146e-08 
2.8557153e-07 3.0131639e-07 -2.0226318e-08 
8.0268632e-07 6.3378508e-07 -5.6798153e-09 
4.9852673e-07 8.5620712e-07 -3.2823571e-08 
1.4225400e-06 1.8330312e-06 -2.4685180e-08 
1.1865461e-06 1.1889782e-06 -6.6989920e-09 
9.5476901e-07 1.3236883e-06 -2.8433389e-08 
3.4203495e-07 5.4129794e-07 -2.7044763e-08 
4.8705414e-07 3.6079300e-07 -1.2403145e-08 
9.8586497e-07 8.6320648e-07 -4.6266835e-09 
6.7772095e-07 1.0763094e-06 -3.2783021e-08 
5.9361759e-07 5.9665342e-07 -1.5918920e-08 
2.7670927e-07 2.8963004e-07 -2.0278344e-08 
1.6121966e-06 2.1506662e-06 -2.9339734e-08 
7.9313361e-07 6.1919656e-07 -5.6899472e-09 
4.8670751e-07 8.4325916e-07 -3.2328934e-08 
1.3833273e-06 1.5706299e-06 -1.2668767e-08 
1.2488046e-06 1.6145407e-06 -2.4933382e-08 
3.3196829e-07 5.2720327e-07 -2.6781024e-08 
1.1704440e-06 1.1619903e-06 -6.6651293e-09 
5.2807309e-07 3.8429303e-07 -1.0953640e-08 
9.3285587e-07 1.3007833e-06 -2.8643221e-08 
2.6790698e-07 2.7814863e-07 -2.0188056e-08 
9.7315115e-07 8.4386716e-07 -4.8367648e-09 
6.6177336e-07 1.0592566e-06 -3.2254412e-08 
4.6558196e-07 3.3492864e-07 -1.2757103e-08 
3.1159530e-07 4.8563732e-07 -2.6124741e-08 
7.8433811e-07 6.0590651e-07 -6.1263323e-09 
4.7577325e-07 8.3104538e-07 -3.2052846e-08 
1.6054973e-06 2.1391277e-06 -2.9398370e-08 
5.4238171e-07 6.3366718e-07 -2.0075863e-08 
1.1552781e-06 1.1365059e-06 -6.8671806e-09 
9.1138423e-07 1.2784634e-06 -2.8717146e-08 
2.5948944e-07 2.6798637e-07 -2.0213204e-08 
9.6066674e-07 8.2620284e-07 -5.3175833e-09 
1.4117658e-06 1.8145181e-06 -2.5385809e-08 
1.4753823e-06 1.7669109e-06 -1.7681938e-08 
5.1222253e-07 3.6422443e-07 -1.1630743e-08 
6.4675152e-07 1.0425423e-06 -3.1647989e-08 
3.2739081e-07 5.3822288e-07 -2.6917098e-08 
1.3017990e-06 1.4088758e-06 -1.0515489e-08 
1.1480568e-06 1.4980840e-06 -2.5478915e-08 
7.7523748e-07 5.9376993e-07 -6.8057089e-09 
4.6653457e-07 8.1938714e-07 -3.1233057e-08 
2.5196320e-07 2.5818608e-07 -1.9861533e-08 
1.1406111e-06 1.1124038e-06 -6.6621761e-09 
8.9159579e-07 1.2581281e-06 -2.8544585e-08 
1.5969910e-06 2.1244589e-06 -2.9415975e-08 
5.2594885e-07 3.7052479e-07 -1.0975860e-08 
3.1990666e-07 5.3115656e-07 -2.6506290e-08 
9.4939946e-07 8.0896882e-07 -5.5449658e-09 
6.3310949e-07 1.0270692e-06 -3.1552577e-08 
2.4490569e-07 2.4825738e-07 -1.9750191e-08 
1.4059204e-06 1.8045444e-06 -2.5421382e-08 
1.4687525e-06 1.7573989e-06 -1.8079094e-08 
7.6730987e-07 5.8168234e-07 -6.7917316e-09 
4.5759890e-07 8.0937650e-07 -3.0975020e-08 
1.1264334e-06 1.0889358e-06 -6.8882287e-09 
3.0828289e-07 5.1181001e-07 -2.6281846e-08 
8.3032216e-07 1.2022354e-06 -2.9439853e-08 
1.2834070e-06 1.3771188e-06 -1.0733110e-08 
5.1504412e-07 3.5667884e-07 -1.1463949e-08 
9.3820364e-07 7.9288236e-07 -6.0947536e-09 
6.2061940e-07 1.0121947e-06 -3.1296292e-08 
2.3751262e-07 2.3910266e-07 -1.9553797e-08 
1.5902425e-06 2.1114665e-06 -2.9104227e-08 
5.0386791e-07 5.7693688e-07 -1.9693248e-08 
7.5986395e-07 5.7122617e-07 -6.8080448e-09 
1.1520999e-06 1.4953276e-06 -2.5208157e-08 
2.8069201e-07 4.4519075e-07 -2.4586436e-08 
4.4894361e-07 7.9880374e-07 -3.0658278e-08 
4.2807298e-07 2.9123029e-07 -1.3195252e-08 
1.1130365e-06 1.0670784e-06 -6.9234996e-09 
1.4015424e-06 1.7961045e-06 -2.4853838e-08 
1.4638277e-06 1.7493602e-06 -1.7614969e-08 
8.5475284e-07 1.2189363e-06 -2.8731934e-08 
5.6708893e-07 3.9534396e-07 -1.0544934e-08 
2.3068611e-07 2.3075268e-07 -1.9420002e-08 
9.2816384e-07 7.7807164e-07 -6.2186523e-09 
6.0832713e-07 9.9829947e-07 -3.0890689e-08 
4.1368281e-07 2.7832903e-07 -1.3463335e-08 
2.8046972e-07 4.5482665e-07 -2.4559577e-08 
7.5294292e-07 5.6079585e-07 -7.1496942e-09 
4.4098908e-07 7.9007737e-07 -2.9821653e-08 
1.5841167e-06 2.1005064e-06 -2.9070279e-08 
1.1000200e-06 1.0461733e-06 -7.0830430e-09 
2.2458201e-07 2.2252328e-07 -1.9302732e-08 
7.9772440e-07 1.1668558e-06 -2.9180613e-08 
5.0889685e-07 3.4335312e-07 -1.1388482e-08 
1.2853152e-06 1.3844689e-06 -1.1399292e-08 
9.1807738e-07 7.6362659e-07 -6.4277659e-09 
6.8065418e-07 7.0067534e-07 -1.5821215e-08 
2.9352307e-07 4.9838650e-07 -2.5479293e-08 
1.3983649e-06 1.7891289e-06 -2.5496234e-08 
5.9716962e-07 9.8509997e-07 -3.0739109e-08 
1.4601183e-06 1.7428600e-06 -1.8354962e-08 
7.4607885e-07 5.5198478e-07 -8.0360900e-09 
1.1094149e-06 1.4440450e-06 -2.5230186e-08 