# vtk DataFile Version 4.0
vtk output
ASCII
DATASET UNSTRUCTURED_GRID
POINTS 4496 float
-4.3633327e-01 9.6409470e-01 4.4200001e+01 
-4.3633258e-01 9.6409065e-01 4.4074627e+01 
-3.2152572e-01 9.1279918e-01 4.4200001e+01 
-3.8534868e-01 8.4052670e-01 4.4200001e+01 
-3.9589554e-01 8.5545403e-01 4.4010014e+01 
-3.2616228e-01 9.1667932e-01 4.4011734e+01 
-4.3633190e-01 9.6408653e-01 4.3948376e+01 
-2.1293370e-01 8.4677851e-01 4.4200001e+01 
-2.9042658e-01 7.3813015e-01 4.4200001e+01 
-2.1010752e-01 8.4669363e-01 4.4073502e+01 
-2.8908840e-01 7.3604190e-01 4.4072292e+01 
-3.9589015e-01 8.5505831e-01 4.3883316e+01 
-3.2487559e-01 9.1697580e-01 4.3885036e+01 
-2.0722924e-01 8.4660655e-01 4.3944645e+01 
-1.1981077e-01 7.7773046e-01 4.4200001e+01 
-2.8772619e-01 7.3391593e-01 4.3942276e+01 
-4.3633121e-01 9.6408242e-01 4.3821228e+01 
-1.9739023e-01 6.6468561e-01 4.4200001e+01 
-2.9444304e-01 7.8727525e-01 4.3879974e+01 
-8.7554991e-02 7.5255024e-01 4.4042213e+01 
-1.6445170e-01 6.4084798e-01 4.4041008e+01 
-3.2357255e-01 9.1726828e-01 4.3757431e+01 
-3.9587301e-01 8.5463828e-01 4.3755711e+01 
-2.0429766e-01 8.4651643e-01 4.3813354e+01 
-2.8633916e-01 7.3175091e-01 4.3809875e+01 
-2.6899619e-02 6.8901783e-01 4.4200001e+01 
-1.0567340e-01 7.7152997e-01 4.3875790e+01 
-4.3633053e-01 9.6407831e-01 4.3693161e+01 
-8.7133333e-02 5.9509218e-01 4.4200001e+01 
-1.8777622e-01 6.5475601e-01 4.3873402e+01 
-2.0131156e-01 8.4642249e-01 4.3679543e+01 
-3.2225290e-01 9.1755641e-01 4.3628902e+01 
-3.9584404e-01 8.5419410e-01 4.3627178e+01 
-1.0114321e-03 6.6670936e-01 4.3939713e+01 
-2.8492665e-01 7.2954547e-01 4.3675007e+01 
-1.0131179e-01 7.7015632e-01 4.3743176e+01 
-6.0682178e-02 5.7631296e-01 4.3938457e+01 
3.9444737e-02 6.2338209e-01 4.4053139e+01 
-1.8470748e-01 6.5131217e-01 4.3739727e+01 
-7.0938184e-03 5.4737431e-01 4.4052326e+01 
-4.3632981e-01 9.6407413e-01 4.3564159e+01 
7.6947339e-02 5.8804804e-01 4.4200001e+01 
-1.2721874e-02 6.8194175e-01 4.3817982e+01 
-7.7214435e-02 5.8474159e-01 4.3819649e+01 
4.0195532e-02 5.2425718e-01 4.4200001e+01 
-1.9826968e-01 8.4632379e-01 4.3543118e+01 
-9.6842363e-02 7.6872379e-01 4.3607994e+01 
-3.2091641e-01 9.1783977e-01 4.3499420e+01 
-3.9580306e-01 8.5372573e-01 4.3497700e+01 
-2.8348783e-01 7.2729832e-01 4.3537586e+01 
-1.8155001e-01 6.4778340e-01 4.3603539e+01 
1.5678726e-01 5.2239102e-01 4.4060219e+01 
1.0298219e-02 6.6009766e-01 4.3674484e+01 
1.3250886e-01 4.7546524e-01 4.4058990e+01 
-4.3632913e-01 9.6407002e-01 4.3434200e+01 
-5.0139543e-02 5.6696451e-01 4.3671154e+01 
1.3504514e-01 5.4209155e-01 4.3856747e+01 
1.0361936e-01 4.8715758e-01 4.3855240e+01 
2.0846681e-01 4.8028421e-01 4.4200001e+01 
1.9279444e-01 4.4799727e-01 4.4200001e+01 
-9.2261828e-02 7.6722860e-01 4.3470158e+01 
-1.4701239e-03 6.7547697e-01 4.3552124e+01 
-1.9517080e-01 8.4621930e-01 4.3403992e+01 
-3.1956279e-01 9.1811794e-01 4.3368977e+01 
-3.9574999e-01 8.5323322e-01 4.3367252e+01 
-1.7830023e-01 6.4416617e-01 4.3464752e+01 
-6.7131944e-02 5.7555372e-01 4.3547829e+01 
-2.8202194e-01 7.2500783e-01 4.3397518e+01 
-4.3632844e-01 9.6406585e-01 4.3303261e+01 
1.5138821e-01 5.3037512e-01 4.3609200e+01 
1.2119007e-01 4.7490793e-01 4.3606068e+01 
-8.7566733e-02 7.6566672e-01 4.3329563e+01 
-1.7495437e-01 6.4045686e-01 4.3323273e+01 
-3.1819177e-01 9.1839045e-01 4.3237537e+01 
-3.9568463e-01 8.5271639e-01 4.3235813e+01 
2.2269404e-02 6.5294570e-01 4.3398811e+01 
-1.9201367e-01 8.4610778e-01 4.3262066e+01 
-3.8899176e-02 5.5709696e-01 4.3393635e+01 
-2.8052819e-01 7.2267252e-01 4.3254715e+01 
3.7877345e-01 3.8273901e-01 4.4200001e+01 
-4.3632776e-01 9.6406174e-01 4.3171322e+01 
3.9241230e-01 3.7329337e-01 4.3965439e+01 
1.0283732e-02 6.6872352e-01 4.3271511e+01 
-5.6385640e-02 5.6585240e-01 4.3265472e+01 
-8.2753494e-02 7.6403379e-01 4.3186119e+01 
-4.0345609e-01 8.6371827e-01 4.3104889e+01 
-3.1680310e-01 9.1865683e-01 4.3105087e+01 
-1.7150842e-01 6.3665158e-01 4.3179005e+01 
-1.8879703e-01 8.4598809e-01 4.3117241e+01 
-2.7900568e-01 7.2029078e-01 4.3109074e+01 
4.0610775e-01 3.6380205e-01 4.3729839e+01 
1.6776134e-01 5.1882964e-01 4.3331150e+01 
-4.3632707e-01 9.6405768e-01 4.3038357e+01 
1.4031014e-01 4.6124566e-01 4.3307755e+01 
3.4952711e-02 6.4519531e-01 4.3111935e+01 
-7.7818394e-02 7.6232505e-01 4.3039719e+01 
-3.1539652e-01 9.1891652e-01 4.2971603e+01 
-3.9551663e-01 8.5160977e-01 4.2969879e+01 
-2.6899155e-02 5.4666573e-01 4.3105160e+01 
-1.6795819e-01 6.3274628e-01 4.3031849e+01 
-1.8551964e-01 8.4585863e-01 4.2969406e+01 
4.1985780e-01 3.5425979e-01 4.3493168e+01 
-2.7745360e-01 7.1786088e-01 4.2960495e+01 
-4.3632638e-01 9.6405357e-01 4.2904346e+01 
2.2723136e-02 6.6139150e-01 4.2979332e+01 
-4.4916678e-02 5.5559248e-01 4.2971806e+01 
-3.1397179e-01 9.1916907e-01 4.2837063e+01 
-3.9541367e-01 8.5101974e-01 4.2835335e+01 
-7.2757579e-02 7.6053542e-01 4.2890255e+01 
-1.6429928e-01 6.2873662e-01 4.2881699e+01 
1.8463810e-01 5.0694346e-01 4.3035332e+01 
-1.8218029e-01 8.4571803e-01 4.2818455e+01 
1.5503895e-01 4.5003417e-01 4.3027725e+01 
-2.7587104e-01 7.1538109e-01 4.2808868e+01 
4.3366045e-01 3.4466109e-01 4.3255390e+01 
-4.3632573e-01 9.6404958e-01 4.2769268e+01 
-3.8429454e-01 8.3484912e-01 4.2710606e+01 
-3.1252861e-01 9.1941386e-01 4.2701439e+01 
4.8404284e-02 6.3678014e-01 4.2813030e+01 
-1.4070326e-02 5.3562075e-01 4.2804932e+01 
-6.7567028e-02 7.5865942e-01 4.2737610e+01 
-1.6052702e-01 6.2461799e-01 4.2728443e+01 
-1.7877772e-01 8.4556442e-01 4.2664265e+01 
-4.3632504e-01 9.6404558e-01 4.2633099e+01 
-2.7425703e-01 7.1284944e-01 4.2654083e+01 
4.4751364e-01 3.3500037e-01 4.3016472e+01 
3.5901129e-02 6.5341437e-01 4.2674721e+01 
-3.7959340e-01 8.2794034e-01 4.2568317e+01 
-3.1106678e-01 9.1965032e-01 4.2564713e+01 
-3.2659348e-02 5.4472327e-01 4.2665997e+01 
2.0396979e-01 4.9291667e-01 4.2740131e+01 
-6.2242586e-02 7.5669110e-01 4.2581669e+01 
1.7765003e-01 4.3475360e-01 4.2732578e+01 
-1.5663649e-01 6.2038553e-01 4.2571964e+01 
-4.3632439e-01 9.6404165e-01 4.2495808e+01 
-1.7531081e-01 8.4539592e-01 4.2506718e+01 
-2.7261066e-01 7.1026409e-01 4.2496017e+01 
-3.0958602e-01 9.1987789e-01 4.2426853e+01 
-3.7859210e-01 8.2613736e-01 4.2421188e+01 
4.6141517e-01 3.2527190e-01 4.2776375e+01 
6.2686495e-02 6.2762415e-01 4.2501175e+01 
-3.3570320e-04 5.2390522e-01 4.2492062e+01 
-5.6779940e-02 7.5462401e-01 4.2422298e+01 
-4.3632373e-01 9.6403772e-01 4.2357380e+01 
-1.5262254e-01 6.1603409e-01 4.2412144e+01 
-1.7177837e-01 8.4521037e-01 4.2345684e+01 
-2.7093092e-01 7.0762289e-01 4.2334549e+01 
-3.0808610e-01 9.2009580e-01 4.2287842e+01 
-3.8275370e-01 8.3137155e-01 4.2275047e+01 
4.9876589e-02 6.4471585e-01 4.2356720e+01 
-1.9539909e-02 5.3318781e-01 4.2347118e+01 
-4.3632311e-01 9.6403396e-01 4.2217781e+01 
2.1959943e-01 4.8236796e-01 4.2385345e+01 
-5.1174615e-02 7.5245124e-01 4.2259373e+01 
1.9034323e-01 4.2346162e-01 4.2378918e+01 
-1.4847966e-01 6.1155808e-01 4.2248856e+01 
4.7536272e-01 3.1546980e-01 4.2535065e+01 
-1.6817927e-01 8.4500539e-01 4.2181026e+01 
-2.6921678e-01 7.0492369e-01 4.2169544e+01 
-3.0656675e-01 9.2030340e-01 4.2147648e+01 
-3.9470181e-01 8.4769493e-01 4.2145920e+01 
7.7868804e-02 6.1763972e-01 4.2175373e+01 
-4.3632248e-01 9.6403021e-01 4.2076988e+01 
1.4390758e-02 5.1145434e-01 4.2165581e+01 
-4.5421973e-02 7.5016522e-01 4.2092751e+01 
-1.4420210e-01 6.0695171e-01 4.2081959e+01 
-3.0502778e-01 9.2049998e-01 4.2006248e+01 
-4.0175444e-01 8.5747409e-01 4.2004128e+01 
-1.6451253e-01 8.4477836e-01 4.2012604e+01 
4.8935395e-01 3.0558801e-01 4.2292507e+01 
-2.6746723e-01 7.0216429e-01 4.2000870e+01 
6.4714879e-02 6.3520777e-01 4.2024277e+01 
-4.3632188e-01 9.6402657e-01 4.1934975e+01 
-5.4755262e-03 5.2092212e-01 4.2014156e+01 
-2.3078828e-01 8.1064087e-01 4.1931458e+01 
2.3550548e-01 4.7116494e-01 4.2073269e+01 
2.0610523e-01 4.1123796e-01 4.2066772e+01 
-3.9517213e-02 7.4775779e-01 4.1922287e+01 
-1.3978374e-01 6.0220873e-01 4.1911320e+01 
-3.0346894e-01 9.2068475e-01 4.1863613e+01 
-3.9432141e-01 8.4618556e-01 4.1861881e+01 
-1.6077711e-01 8.4452641e-01 4.1840263e+01 
-2.6568118e-01 6.9934219e-01 4.1828377e+01 
-4.3632129e-01 9.6402299e-01 4.1791718e+01 
5.0338638e-01 2.9562023e-01 4.2048656e+01 
9.4028555e-02 6.0672593e-01 4.1834507e+01 
3.0205652e-02 4.9819478e-01 4.1824417e+01 
-3.8116732e-01 8.2744831e-01 4.1725647e+01 
-3.0189002e-01 9.2085695e-01 4.1719719e+01 
-3.3455357e-02 7.4522001e-01 4.1747829e+01 
-1.3521814e-01 5.9732240e-01 4.1736786e+01 
-4.3632072e-01 9.6401960e-01 4.1647179e+01 
-1.5697217e-01 8.4424627e-01 4.1663853e+01 
-2.6385748e-01 6.9645494e-01 4.1651920e+01 
8.0488607e-02 6.2478805e-01 4.1676235e+01 
2.6870471e-01 4.4547972e-01 4.1752304e+01 
9.6269641e-03 5.0785345e-01 4.1665993e+01 
2.4764967e-01 3.8646612e-01 4.1743168e+01 
-3.0029076e-01 9.2101562e-01 4.1574532e+01 
-3.9388368e-01 8.4456980e-01 4.1572796e+01 
5.1745731e-01 2.8556010e-01 4.1803486e+01 
-2.7231261e-02 7.4254233e-01 4.1569210e+01 
-1.3049847e-01 5.9228569e-01 4.1558201e+01 
-4.3632016e-01 9.6401632e-01 4.1501339e+01 
-1.5309690e-01 8.4393430e-01 4.1483204e+01 
-2.6199502e-01 6.9349992e-01 4.1471333e+01 
-2.9867104e-01 9.2115986e-01 4.1428024e+01 
-3.9364263e-01 8.4372103e-01 4.1426289e+01 
1.1125199e-01 5.9476525e-01 4.1477348e+01 
4.7217656e-02 4.8404291e-01 4.1467384e+01 
-4.3631962e-01 9.6401310e-01 4.1354160e+01 
-2.0839609e-02 7.3971421e-01 4.1386261e+01 
-1.2561750e-01 5.8709091e-01 4.1375404e+01 
5.3156406e-01 2.7540097e-01 4.1556946e+01 
-1.4915068e-01 8.4358656e-01 4.1298138e+01 
-2.9703063e-01 9.2128879e-01 4.1280167e+01 
-3.9338648e-01 8.4284443e-01 4.1278431e+01 
-2.6009262e-01 6.9047421e-01 4.1286449e+01 
2.9365057e-01 4.2687622e-01 4.1391586e+01 
9.7278498e-02 6.1333776e-01 4.1311302e+01 
2.7470219e-01 3.6807936e-01 4.1382729e+01 
2.5872495e-02 4.9389899e-01 4.1301384e+01 
-4.3631911e-01 9.6401012e-01 4.1205620e+01 
-1.4274905e-02 7.3672432e-01 4.1198803e+01 
-1.2056758e-01 5.8173001e-01 4.1188221e+01 
-2.9536936e-01 9.2140132e-01 4.1130928e+01 
[...]
POINT_DATA 4496
FIELD FieldData 5
DISPLACEMENT 3 4496  float
2.6912149e-02 2.6168643e-02 -2.2038214e-04 
2.6797127e-02 2.6040087e-02 -2.2025892e-04 
2.6933825e-02 2.6217213e-02 -2.7318887e-04 
2.6964480e-02 2.6190273e-02 -1.4052395e-04 
2.6783854e-02 2.5991000e-02 -1.4596563e-04 
2.6759457e-02 2.6022200e-02 -2.7272943e-04 
2.6681311e-02 2.5910651e-02 -2.2013334e-04 
2.6961749e-02 2.6263177e-02 -3.0520360e-04 
2.7007831e-02 2.6230475e-02 -1.2269421e-04 
2.6845716e-02 2.6134651e-02 -3.0758977e-04 
2.6891535e-02 2.6100080e-02 -1.2165961e-04 
2.6667790e-02 2.5861109e-02 -1.4544326e-04 
2.6643107e-02 2.5892841e-02 -2.7409408e-04 
2.6727531e-02 2.6003724e-02 -3.1001604e-04 
2.6990971e-02 2.6302610e-02 -3.1992016e-04 
2.6773136e-02 2.5967345e-02 -1.2061268e-04 
2.6564689e-02 2.5780316e-02 -2.2000483e-04 
2.7038923e-02 2.6269872e-02 -1.3281379e-04 
2.6693380e-02 2.5900591e-02 -1.6908353e-04 
2.6856842e-02 2.6154449e-02 -3.2357211e-04 
2.6903108e-02 2.6120758e-02 -1.3846434e-04 
2.6525952e-02 2.5762577e-02 -2.7544831e-04 
2.6550915e-02 2.5730317e-02 -1.4491474e-04 
2.6607126e-02 2.5870331e-02 -3.1248442e-04 
2.6652569e-02 2.5832182e-02 -1.1954509e-04 
2.7028535e-02 2.6341982e-02 -3.1428572e-04 
2.6696112e-02 2.5976084e-02 -3.2622772e-04 
2.6447278e-02 2.5649067e-02 -2.1986791e-04 
2.7068388e-02 2.6316565e-02 -1.6268231e-04 
2.6743414e-02 2.5939006e-02 -1.3115417e-04 
2.6484432e-02 2.5734389e-02 -3.1498962e-04 
2.6407974e-02 2.5631389e-02 -2.7682120e-04 
2.6433228e-02 2.5598619e-02 -1.4438180e-04 
2.6799116e-02 2.6085956e-02 -3.1494122e-04 
2.6529754e-02 2.5694519e-02 -1.1846287e-04 
2.6575025e-02 2.5841916e-02 -3.2868955e-04 
2.6836293e-02 2.6059497e-02 -1.6746134e-04 
2.6921550e-02 2.6219459e-02 -3.0777525e-04 
2.6622187e-02 2.5803229e-02 -1.3032167e-04 
2.6953055e-02 2.6198989e-02 -1.8709531e-04 
2.6329013e-02 2.5516924e-02 -2.1973238e-04 
2.7071310e-02 2.6386023e-02 -3.0611950e-04 
2.6680958e-02 2.5956117e-02 -3.1968940e-04 
2.6723677e-02 2.5930639e-02 -1.6081394e-04 
2.7098393e-02 2.6370509e-02 -2.0694909e-04 
2.6359361e-02 2.5595801e-02 -3.1753306e-04 
2.6451621e-02 2.5705162e-02 -3.3118253e-04 
2.6289159e-02 2.5499277e-02 -2.7818826e-04 
2.6314698e-02 2.5465986e-02 -1.4380970e-04 
2.6404640e-02 2.5554281e-02 -1.1736244e-04 
2.6498705e-02 2.5664924e-02 -1.2948019e-04 
2.6970819e-02 2.6276452e-02 -3.1198096e-04 
2.6558507e-02 2.5818637e-02 -3.1829649e-04 
2.6989602e-02 2.6264945e-02 -2.4154362e-04 
2.6209921e-02 2.5383802e-02 -2.1958405e-04 
2.6594881e-02 2.5789768e-02 -1.6730936e-04 
2.6775694e-02 2.6058435e-02 -3.1203189e-04 
2.6797593e-02 2.6043640e-02 -2.2680721e-04 
2.7116986e-02 2.6441813e-02 -3.1639056e-04 
2.7130695e-02 2.6435198e-02 -2.6886462e-04 
2.6325824e-02 2.5565738e-02 -3.3371433e-04 
2.6439739e-02 2.5688143e-02 -3.2312900e-04 
2.6231850e-02 2.5454506e-02 -3.2011839e-04 
2.6169477e-02 2.5366200e-02 -2.7957538e-04 
2.6195319e-02 2.5332410e-02 -1.4324233e-04 
2.6372878e-02 2.5524018e-02 -1.2864469e-04 
2.6478050e-02 2.5656110e-02 -1.6041804e-04 
2.6277119e-02 2.5411369e-02 -1.1624904e-04 
2.6089950e-02 2.5249744e-02 -2.1944247e-04 
2.6553385e-02 2.5811262e-02 -3.1479902e-04 
2.6573973e-02 2.5795352e-02 -2.3014290e-04 
2.6197553e-02 2.5423568e-02 -3.3626077e-04 
2.6244624e-02 2.5380410e-02 -1.2779502e-04 
2.6048942e-02 2.5232179e-02 -2.8095042e-04 
2.6075086e-02 2.5197873e-02 -1.4266692e-04 
2.6308572e-02 2.5540886e-02 -3.2168112e-04 
2.6101805e-02 2.5310386e-02 -3.2273246e-04 
2.6344303e-02 2.5509872e-02 -1.6726930e-04 
2.6147129e-02 2.5265705e-02 -1.1511395e-04 
2.7158309e-02 2.6514011e-02 -3.7274760e-04 
2.5969099e-02 2.5114698e-02 -2.1930062e-04 
2.6946906e-02 2.6278958e-02 -3.7536153e-04 
2.6185146e-02 2.5405269e-02 -3.2670851e-04 
2.6222980e-02 2.5371099e-02 -1.6010187e-04 
2.6066728e-02 2.5278540e-02 -3.3884388e-04 
2.5950463e-02 2.5060587e-02 -1.4669752e-04 
2.5927475e-02 2.5097132e-02 -2.8234895e-04 
2.6113885e-02 2.5234038e-02 -1.2694909e-04 
2.5969150e-02 2.5163380e-02 -3.2538484e-04 
2.6014611e-02 2.5117222e-02 -1.1394287e-04 
2.6734512e-02 2.6042785e-02 -3.7797992e-04 
2.6302978e-02 2.5532780e-02 -3.1774194e-04 
2.5847336e-02 2.4978686e-02 -2.1915430e-04 
2.6305780e-02 2.5497263e-02 -2.3342574e-04 
2.6048664e-02 2.5251985e-02 -3.2508932e-04 
2.5933258e-02 2.5130579e-02 -3.4144206e-04 
2.5805162e-02 2.4961121e-02 -2.8371962e-04 
2.5831891e-02 2.4925806e-02 -1.4144629e-04 
2.6083924e-02 2.5219128e-02 -1.6735228e-04 
2.5980532e-02 2.5084777e-02 -1.2608907e-04 
2.5833784e-02 2.5013346e-02 -3.2806172e-04 
2.6521098e-02 2.5805373e-02 -3.8060331e-04 
2.5879415e-02 2.4965780e-02 -1.1276967e-04 
2.5724720e-02 2.4841625e-02 -2.1898278e-04 
2.5920263e-02 2.5110891e-02 -3.3030365e-04 
2.5957799e-02 2.5074905e-02 -1.5989236e-04 
2.5681907e-02 2.4824079e-02 -2.8512871e-04 
2.5708951e-02 2.4788281e-02 -1.4083307e-04 
2.5797049e-02 2.4979558e-02 -3.4407273e-04 
2.5844526e-02 2.4932571e-02 -1.2524280e-04 
2.6036417e-02 2.5236260e-02 -3.2079432e-04 
2.5695605e-02 2.4860192e-02 -3.3076946e-04 
2.6053349e-02 2.5216093e-02 -2.3522433e-04 
2.5741519e-02 2.4811342e-02 -1.1158878e-04 
2.6306659e-02 2.5566829e-02 -3.8327556e-04 
2.5601119e-02 2.4703618e-02 -2.1881134e-04 
2.5601527e-02 2.4665479e-02 -1.3435245e-04 
2.5557732e-02 2.4686052e-02 -2.8648891e-04 
2.5778083e-02 2.4951180e-02 -3.2850684e-04 
2.5813052e-02 2.4916826e-02 -1.6759703e-04 
2.5657982e-02 2.4825407e-02 -3.4671923e-04 
2.5705718e-02 2.4777289e-02 -1.2437439e-04 
2.5554558e-02 2.4703884e-02 -3.3350260e-04 
2.5476610e-02 2.4564561e-02 -2.1862041e-04 
2.5600769e-02 2.4653714e-02 -1.1037426e-04 
2.6091132e-02 2.5327042e-02 -3.8590631e-04 
2.5644356e-02 2.4804249e-02 -3.3389835e-04 
2.5474226e-02 2.4522115e-02 -1.3143291e-04 
2.5432615e-02 2.4546949e-02 -2.8782693e-04 
2.5681788e-02 2.4766801e-02 -1.5981318e-04 
2.5771331e-02 2.4941459e-02 -3.2392071e-04 
2.5516035e-02 2.4668008e-02 -3.4940030e-04 
2.5788715e-02 2.4922777e-02 -2.4011101e-04 
2.5564073e-02 2.4618857e-02 -1.2357009e-04 
2.5351172e-02 2.4424430e-02 -2.1839306e-04 
2.5410483e-02 2.4544252e-02 -3.3628813e-04 
2.5457084e-02 2.4492912e-02 -1.0914997e-04 
2.5306489e-02 2.4406811e-02 -2.8921693e-04 
2.5340399e-02 2.4372412e-02 -1.3038593e-04 
2.5874596e-02 2.5086196e-02 -3.8852313e-04 
2.5496079e-02 2.4637677e-02 -3.3189668e-04 
2.5530966e-02 2.4602201e-02 -1.6800282e-04 
2.5371032e-02 2.4507267e-02 -3.5203961e-04 
2.5224715e-02 2.4283301e-02 -2.1819171e-04 
2.5419433e-02 2.4457151e-02 -1.2272391e-04 
2.5263319e-02 2.4381194e-02 -3.3906536e-04 
2.5310375e-02 2.4328781e-02 -1.0790121e-04 
2.5179422e-02 2.4265628e-02 -2.9057878e-04 
2.5204636e-02 2.4221709e-02 -1.3180300e-04 
2.5356667e-02 2.4484487e-02 -3.3745120e-04 
2.5394252e-02 2.4445998e-02 -1.5985654e-04 
2.5097294e-02 2.4141127e-02 -2.1797312e-04 
2.5450246e-02 2.4584256e-02 -3.2718453e-04 
2.5222899e-02 2.4343075e-02 -3.5469190e-04 
2.5468837e-02 2.4565591e-02 -2.4001798e-04 
2.5271734e-02 2.4292119e-02 -1.2188469e-04 
2.5656985e-02 2.4844112e-02 -3.9110670e-04 
2.5112942e-02 2.4214603e-02 -3.4186925e-04 
2.5160508e-02 2.4161199e-02 -1.0663280e-04 
2.5051396e-02 2.4123421e-02 -2.9191488e-04 
2.5079951e-02 2.4085278e-02 -1.3741545e-04 
2.5201872e-02 2.4310673e-02 -3.3524740e-04 
2.4968863e-02 2.3997836e-02 -2.1776134e-04 
2.5236910e-02 2.4274494e-02 -1.6865085e-04 
2.5071522e-02 2.4175314e-02 -3.5735671e-04 
2.5120910e-02 2.4123607e-02 -1.2102133e-04 
2.4922237e-02 2.3980005e-02 -2.9331670e-04 
2.4946386e-02 2.3938023e-02 -1.4080339e-04 
2.4959231e-02 2.4044365e-02 -3.4469692e-04 
2.5438281e-02 2.4600830e-02 -3.9369296e-04 
2.5007477e-02 2.3990124e-02 -1.0530194e-04 
2.5056398e-02 2.4150869e-02 -3.4093644e-04 
2.4839275e-02 2.3853395e-02 -2.1755802e-04 
2.5094356e-02 2.4111735e-02 -1.6010298e-04 
2.4899296e-02 2.3934474e-02 -2.4920329e-04 
2.5168855e-02 2.4271384e-02 -3.3008945e-04 
2.5187662e-02 2.4252677e-02 -2.4187086e-04 
2.4916798e-02 2.4003891e-02 -3.6003892e-04 
2.4966786e-02 2.3951536e-02 -1.2015455e-04 
2.4792006e-02 2.3835436e-02 -2.9467756e-04 
2.4821147e-02 2.3796355e-02 -1.3596591e-04 
2.4802055e-02 2.3870409e-02 -3.4755078e-04 
2.4851091e-02 2.3815298e-02 -1.0395605e-04 
2.4708677e-02 2.3707790e-02 -2.1730285e-04 
2.5218559e-02 2.4356538e-02 -3.9627973e-04 
2.4894577e-02 2.3969263e-02 -3.3854012e-04 
2.4930019e-02 2.3932829e-02 -1.6951888e-04 
2.4704644e-02 2.3663342e-02 -1.2871031e-04 
2.4660820e-02 2.3689821e-02 -2.9598226e-04 
2.4758535e-02 2.3828577e-02 -3.6272281e-04 
2.4809217e-02 2.3775686e-02 -1.1927664e-04 
2.4577068e-02 2.3561036e-02 -2.1700446e-04 
2.4641305e-02 2.3692451e-02 -3.5042394e-04 
2.4691105e-02 2.3636637e-02 -1.0261677e-04 
2.4742544e-02 2.3802349e-02 -3.4432628e-04 
2.4885492e-02 2.3957001e-02 -3.3407079e-04 
2.4781115e-02 2.3763008e-02 -1.6054887e-04 
2.4901332e-02 2.3939092e-02 -2.5457283e-04 
2.4528477e-02 2.3543013e-02 -2.9734705e-04 
2.4558287e-02 2.3503037e-02 -1.3436229e-04 
2.4997892e-02 2.4111394e-02 -3.9883226e-04 
2.4596650e-02 2.3649273e-02 -3.6540796e-04 
2.4648122e-02 2.3596020e-02 -1.1845597e-04 
2.4444338e-02 2.3413215e-02 -2.1672682e-04 
2.4476804e-02 2.3510439e-02 -3.5326392e-04 
2.4527512e-02 2.3454081e-02 -1.0127283e-04 
2.4395097e-02 2.3395067e-02 -2.9864503e-04 
2.4425179e-02 2.3354691e-02 -1.3361369e-04 
2.4573144e-02 2.3612339e-02 -3.4171942e-04 
2.4609281e-02 2.3576209e-02 -1.7058692e-04 
2.4310444e-02 2.3264291e-02 -2.1646061e-04 
2.4430990e-02 2.3465887e-02 -3.6803720e-04 
2.4483336e-02 2.3412352e-02 -1.1757835e-04 
2.4776097e-02 2.3864962e-02 -4.0128722e-04 
2.4308445e-02 2.3324272e-02 -3.5609011e-04 
2.4260553e-02 2.3246011e-02 -2.9992391e-04 
2.4290914e-02 2.3205135e-02 -1.3275242e-04 
2.4360199e-02 2.3267426e-02 -9.9817094e-05 
2.4563091e-02 2.3599252e-02 -3.3774896e-04 
2.4414076e-02 2.3437740e-02 -3.4762712e-04 
2.4578933e-02 2.3582594e-02 -2.6055562e-04 
2.4453627e-02 2.3398818e-02 -1.6113141e-04 
2.4175491e-02 2.3114014e-02 -2.1616729e-04 
2.4261452e-02 2.3278253e-02 -3.7068961e-04 
2.4314681e-02 2.3224540e-02 -1.1671140e-04 
2.4124866e-02 2.3095606e-02 -3.0125701e-04 
2.4155572e-02 2.3054348e-02 -1.3194184e-04 
2.4136098e-02 2.3133686e-02 -3.5901071e-04 
2.4188923e-02 2.3076590e-02 -9.8379431e-05 
2.4553174e-02 2.3617461e-02 -4.0376626e-04 
2.4039289e-02 2.2962650e-02 -2.1586813e-04 
2.4236493e-02 2.3238763e-02 -3.4477367e-04 
2.4273571e-02 2.3203406e-02 -1.7198917e-04 
2.3987981e-02 2.2944041e-02 -3.0257690e-04 
2.4018988e-02 2.2902353e-02 -1.3105111e-04 
2.4087777e-02 2.3086080e-02 -3.7329996e-04 
2.4142111e-02 2.3032483e-02 -1.1585756e-04 
2.3901982e-02 2.2809928e-02 -2.1553932e-04 
2.3959560e-02 2.2938604e-02 -3.6180019e-04 
2.4013538e-02 2.2881297e-02 -9.6879296e-05 
2.4225302e-02 2.3224814e-02 -3.4165601e-04 
2.4241475e-02 2.3209926e-02 -2.6716437e-04 
2.4062052e-02 2.3045287e-02 -3.4617409e-04 
2.4329221e-02 2.3369037e-02 -4.0619730e-04 
2.3849981e-02 2.2791207e-02 -3.0381244e-04 
2.3881262e-02 2.2749167e-02 -1.3025088e-04 
2.4099700e-02 2.3010680e-02 -1.7273307e-04 
2.3909936e-02 2.2889433e-02 -3.7583717e-04 
2.3965340e-02 2.2835935e-02 -1.1502338e-04 
2.3763379e-02 2.2656137e-02 -2.1521105e-04 
2.3778586e-02 2.2738775e-02 -3.6465540e-04 
2.3834052e-02 2.2681523e-02 -9.5379182e-05 
2.3710718e-02 2.2637283e-02 -3.0501574e-04 
2.3742255e-02 2.2594731e-02 -1.2931306e-04 
2.3883354e-02 2.2847204e-02 -3.4757113e-04 
2.3759387e-02 2.2636805e-02 -1.8179373e-04 
2.3921696e-02 2.2813490e-02 -1.7366518e-04 
2.3623604e-02 2.2500927e-02 -2.1483183e-04 
2.4104003e-02 2.3119116e-02 -4.0853527e-04 
2.3942474e-02 2.2910738e-02 -3.4302796e-04 
2.3727680e-02 2.2688005e-02 -3.7826647e-04 
2.3961598e-02 2.2895185e-02 -2.5900087e-04 
2.3784343e-02 2.2634953e-02 -1.1416074e-04 
2.3570165e-02 2.2481870e-02 -3.0616974e-04 
2.3602000e-02 2.2438977e-02 -1.2840751e-04 
2.3593353e-02 2.2534285e-02 -3.6733510e-04 
2.3650067e-02 2.2477156e-02 -9.3938179e-05 
2.3482550e-02 2.2344600e-02 -2.1448894e-04 
2.3700261e-02 2.2644384e-02 -3.4894873e-04 
2.3739357e-02 2.2611670e-02 -1.7460367e-04 
2.3540903e-02 2.2481726e-02 -3.8074426e-04 
2.3428483e-02 2.2325289e-02 -3.0736020e-04 
2.3460608e-02 2.2282027e-02 -1.2746315e-04 
2.3598840e-02 2.2429170e-02 -1.1325085e-04 
2.3877457e-02 2.2868309e-02 -4.1092426e-04 
2.3403237e-02 2.2324687e-02 -3.7016190e-04 
2.3340266e-02 2.2186929e-02 -2.1408810e-04 
2.3723936e-02 2.2644447e-02 -2.8886832e-04 
2.3708202e-02 2.2654776e-02 -3.5270350e-04 
2.3461552e-02 2.2267886e-02 -9.2286631e-05 
2.3512527e-02 2.2436639e-02 -3.5016538e-04 
2.3552433e-02 2.2405041e-02 -1.7570776e-04 
2.3285437e-02 2.2167372e-02 -3.0856419e-04 
2.3317827e-02 2.2123758e-02 -1.2649952e-04 
2.3349298e-02 2.2270277e-02 -3.8316887e-04 
2.3408752e-02 2.2218447e-02 -1.1237480e-04 
2.3196585e-02 2.2027900e-02 -2.1366283e-04 
2.3649851e-02 2.2616258e-02 -4.1311086e-04 
2.3208149e-02 2.2109777e-02 -3.7296070e-04 
2.3268258e-02 2.2053486e-02 -9.0600952e-05 
2.3141064e-02 2.2008199e-02 -3.0961027e-04 
2.3173695e-02 2.1964204e-02 -1.2557763e-04 
2.3495920e-02 2.2392269e-02 -2.9043952e-04 
2.3480313e-02 2.2402791e-02 -3.5472788e-04 
2.3316503e-02 2.2220004e-02 -3.5151330e-04 
2.3355614e-02 2.2187352e-02 -1.7583005e-04 
2.3150394e-02 2.1977527e-02 -2.1550710e-04 
2.3051852e-02 2.1867758e-02 -2.1321875e-04 
2.3153543e-02 2.2054596e-02 -3.8577162e-04 
2.3215380e-02 2.2003926e-02 -1.1044519e-04 
2.2996400e-02 2.1848151e-02 -3.0938303e-04 
2.3028962e-02 2.1804407e-02 -1.2532099e-04 
2.3011563e-02 2.1893306e-02 -3.7547256e-04 
2.3421159e-02 2.2363376e-02 -4.1520788e-04 
2.3075368e-02 2.1839982e-02 -8.9045825e-05 
2.2908112e-02 2.1709127e-02 -2.1283451e-04 
2.3114173e-02 2.1997187e-02 -3.5422464e-04 
2.3159413e-02 2.1968696e-02 -1.7166774e-04 
2.3267513e-02 2.2140149e-02 -2.9226430e-04 
2.3252068e-02 2.2150768e-02 -3.5671351e-04 
2.2957718e-02 2.1764692e-02 -2.1531338e-04 
2.2852892e-02 2.1689590e-02 -3.0905887e-04 
2.2957476e-02 2.1838898e-02 -3.8861440e-04 
2.2885289e-02 2.1645881e-02 -1.2496185e-04 
2.3023296e-02 2.1790903e-02 -1.0797245e-04 
2.2765534e-02 2.1551572e-02 -2.1234313e-04 
2.2818489e-02 2.1680923e-02 -3.7788597e-04 
2.2885524e-02 2.1630203e-02 -8.7492779e-05 
2.3192249e-02 2.2110479e-02 -4.1728132e-04 
2.2918481e-02 2.1782324e-02 -3.5746137e-04 
2.2968262e-02 2.1755850e-02 -1.6732777e-04 
2.2710221e-02 2.1532083e-02 -3.0885782e-04 
2.2742573e-02 2.1488618e-02 -1.2462812e-04 
2.3000402e-02 2.1869602e-02 -3.5033887e-04 
2.3023779e-02 2.1858066e-02 -2.6278538e-04 
2.2764869e-02 2.1627234e-02 -3.9134829e-04 
2.2834191e-02 2.1581378e-02 -1.0551475e-04 
2.2720128e-02 2.1502474e-02 -2.1462160e-04 
2.2623831e-02 2.1395367e-02 -2.1191599e-04 
2.2698632e-02 2.1423798e-02 -8.5865060e-05 
2.2628572e-02 2.1472204e-02 -3.8014879e-04 
2.2568665e-02 2.1375857e-02 -3.0853742e-04 
2.2600837e-02 2.1332635e-02 -1.2427478e-04 
2.2780040e-02 2.1546507e-02 -1.6307220e-04 
2.2726174e-02 2.1571336e-02 -3.6069760e-04 
2.2963556e-02 2.1858284e-02 -4.1928262e-04 
2.2482952e-02 2.1240314e-02 -2.1150254e-04 
2.2647908e-02 2.1375343e-02 -1.0309335e-04 
2.2575442e-02 2.1419385e-02 -3.9395239e-04 
2.2795904e-02 2.1648213e-02 -3.6079896e-04 
2.2782236e-02 2.1594057e-02 -2.6867262e-04 
2.2427902e-02 2.1220773e-02 -3.0812930e-04 
2.2455521e-02 2.1173568e-02 -1.2589559e-04 
2.2514626e-02 2.1220675e-02 -8.4117943e-05 
2.2441814e-02 2.1267429e-02 -3.8238711e-04 
2.2414202e-02 2.1168860e-02 -2.2177568e-04 
2.2343064e-02 2.1086186e-02 -2.1097825e-04 
2.2594484e-02 2.1340590e-02 -1.5908679e-04 
2.2535088e-02 2.1357484e-02 -3.5371396e-04 
2.2464313e-02 2.1172712e-02 -1.0087077e-04 
2.2389187e-02 2.1215083e-02 -3.9641227e-04 
2.2288071e-02 2.1066708e-02 -3.0765630e-04 
2.2735301e-02 2.1607041e-02 -4.2128397e-04 
2.2319997e-02 2.1023784e-02 -1.2346871e-04 
2.2335391e-02 2.1075875e-02 -2.0672733e-04 
2.2573227e-02 2.1363951e-02 -2.6916573e-04 
2.2204053e-02 2.0933367e-02 -2.1050712e-04 
2.2332991e-02 2.1020932e-02 -8.2685830e-05 
2.2258049e-02 2.1065883e-02 -3.8433500e-04 
2.2568073e-02 2.1397699e-02 -3.6255864e-04 
2.2411708e-02 2.1138055e-02 -1.5502260e-04 
2.2351092e-02 2.1160413e-02 -3.6671400e-04 
2.2149151e-02 2.0913901e-02 -3.0727804e-04 
2.2181008e-02 2.0871170e-02 -1.2309954e-04 
2.2283472e-02 2.0973304e-02 -9.8521457e-05 
2.2205949e-02 2.1014271e-02 -3.9863528e-04 
2.2147531e-02 2.0861737e-02 -1.8782108e-04 
2.2065884e-02 2.0781647e-02 -2.1005298e-04 
2.2507181e-02 2.1356303e-02 -4.2328038e-04 
2.2154154e-02 2.0824175e-02 -8.1006525e-05 
2.2077154e-02 2.0867864e-02 -3.8619316e-04 
2.2356698e-02 2.1115890e-02 -2.4619760e-04 
2.2315484e-02 2.1114435e-02 -3.5071178e-04 
2.2011086e-02 2.0762146e-02 -3.0678441e-04 
2.2231622e-02 2.0938694e-02 -1.5114401e-04 
2.2039050e-02 2.0710904e-02 -1.1163756e-04 
2.2168193e-02 2.0960452e-02 -3.6965514e-04 
2.1928463e-02 2.0630931e-02 -2.0958034e-04 
2.2105159e-02 2.0776913e-02 -9.6216732e-05 
2.2025540e-02 2.0816984e-02 -4.0071001e-04 
2.1905391e-02 2.0569138e-02 -1.2232125e-04 
2.1869451e-02 2.0602908e-02 -2.9710983e-04 
2.1977834e-02 2.0630484e-02 -7.9432408e-05 
2.1899054e-02 2.0673091e-02 -3.8794830e-04 
2.2279235e-02 2.1105923e-02 -4.2488115e-04 
2.1877361e-02 2.0587601e-02 -2.4001607e-04 
2.2054084e-02 2.0742545e-02 -1.4739446e-04 
2.1987986e-02 2.0763721e-02 -3.7248238e-04 
2.1791900e-02 2.0481462e-02 -2.0914432e-04 
2.1929229e-02 2.0583721e-02 -9.4085342e-05 
2.2113062e-02 2.0898191e-02 -3.6592843e-04 
2.2127660e-02 2.0887377e-02 -3.0134435e-04 
2.1798201e-02 2.0447029e-02 -1.1031993e-04 
2.1847859e-02 2.0622777e-02 -4.0261395e-04 
2.1752724e-02 2.0483466e-02 -3.1751700e-04 
2.2040738e-02 2.0753684e-02 -2.0937623e-04 
2.1986239e-02 2.0752929e-02 -3.5162907e-04 
2.1803716e-02 2.0439791e-02 -7.7973440e-05 
2.1723906e-02 2.0481486e-02 -3.8933067e-04 
2.1656301e-02 2.0333037e-02 -2.0858277e-04 
2.1878950e-02 2.0549372e-02 -1.4365559e-04 
2.1810744e-02 2.0570450e-02 -3.7509314e-04 
2.2050962e-02 2.0855278e-02 -4.2649062e-04 
2.1652164e-02 2.0285657e-02 -1.0532782e-04 
2.1603430e-02 2.0320794e-02 -3.1890985e-04 
2.1755809e-02 2.0393254e-02 -9.1918060e-05 
2.1673040e-02 2.0431904e-02 -4.0449647e-04 
2.1521501e-02 2.0185510e-02 -2.0805553e-04 
2.1885494e-02 2.0648962e-02 -3.6734491e-04 
2.1899857e-02 2.0638177e-02 -3.0285292e-04 
2.1632092e-02 2.0251747e-02 -7.6326796e-05 
2.1551289e-02 2.0293208e-02 -3.9076063e-04 
2.1706089e-02 2.0359013e-02 -1.4010184e-04 
2.1458093e-02 2.0160846e-02 -3.1610229e-04 
2.1610470e-02 2.0354602e-02 -3.8340403e-04 
2.1728102e-02 2.0409897e-02 -2.0508681e-04 
2.1480685e-02 2.0098262e-02 -1.0448616e-04 
2.1584557e-02 2.0205677e-02 -8.9854868e-05 
2.1500885e-02 2.0244006e-02 -4.0617248e-04 
2.1387292e-02 2.0039054e-02 -2.0751117e-04 
2.1823093e-02 2.0605488e-02 -4.2786458e-04 
2.1402098e-02 2.0065898e-02 -2.3411214e-04 
2.1462696e-02 2.0066677e-02 -7.4704061e-05 
2.1603720e-02 2.0334192e-02 -3.5233484e-04 
2.1333765e-02 2.0017143e-02 -2.9639670e-04 
2.1381101e-02 2.0107564e-02 -3.9208878e-04 
2.1364124e-02 1.9978102e-02 -1.2063236e-04 
2.1535562e-02 2.0171551e-02 -1.3657214e-04 
2.1658225e-02 2.0400481e-02 -3.6848531e-04 
2.1672418e-02 2.0389719e-02 -3.0403011e-04 
2.1464076e-02 2.0192884e-02 -3.8005071e-04 
2.1335604e-02 1.9936191e-02 -9.3899493e-05 
2.1253912e-02 1.9893650e-02 -2.0699756e-04 
2.1415656e-02 2.0020908e-02 -8.7668326e-05 
2.1331100e-02 2.0059079e-02 -4.0770444e-04 
2.1249641e-02 1.9854184e-02 -1.2215029e-04 
2.1199988e-02 1.9873846e-02 -3.0273336e-04 
2.1295456e-02 1.9884033e-02 -7.3159899e-05 
2.1213360e-02 1.9925097e-02 -3.9313856e-04 
2.1595314e-02 2.0356484e-02 -4.2916098e-04 
2.1367112e-02 1.9986771e-02 -1.3314732e-04 
2.1121336e-02 1.9749150e-02 -2.0645602e-04 
2.1269789e-02 1.9983886e-02 -3.8770444e-04 
2.1155454e-02 1.9742902e-02 -1.0031358e-04 
2.1393692e-02 2.0047097e-02 -2.1057104e-04 
2.1248762e-02 1.9838639e-02 -8.5610358e-05 
2.1184655e-02 1.9813685e-02 -1.9626903e-04 
2.1079976e-02 1.9750139e-02 -3.2012278e-04 
2.1431120e-02 2.0152591e-02 -3.6971751e-04 
2.1163797e-02 1.9876987e-02 -4.0914299e-04 
2.1445138e-02 2.0141870e-02 -3.0532113e-04 
2.1130228e-02 1.9704185e-02 -7.1743903e-05 
2.1263245e-02 1.9962756e-02 -3.5367857e-04 