# vtk DataFile Version 4.0
vtk output
ASCII
DATASET UNSTRUCTURED_GRID
POINTS 4496 float
-4.3633327e-01 9.6409470e-01 4.4200001e+01 
-4.3633258e-01 9.6409065e-01 4.4074627e+01 
-3.2152572e-01 9.1279918e-01 4.4200001e+01 
-3.8534868e-01 8.4052670e-01 4.4200001e+01 
-3.9589554e-01 8.5545403e-01 4.4010014e+01 
-3.2616228e-01 9.1667932e-01 4.4011734e+01 
-4.3633190e-01 9.6408653e-01 4.3948376e+01 
-2.1293370e-01 8.4677851e-01 4.4200001e+01 
-2.9042658e-01 7.3813015e-01 4.4200001e+01 
-2.1010752e-01 8.4669363e-01 4.4073502e+01 
-2.8908840e-01 7.3604190e-01 4.4072292e+01 
-3.9589015e-01 8.5505831e-01 4.3883316e+01 
-3.2487559e-01 9.1697580e-01 4.3885036e+01 
-2.0722924e-01 8.4660655e-01 4.3944645e+01 
-1.1981077e-01 7.7773046e-01 4.4200001e+01 
-2.8772619e-01 7.3391593e-01 4.3942276e+01 
-4.3633121e-01 9.6408242e-01 4.3821228e+01 
-1.9739023e-01 6.6468561e-01 4.4200001e+01 
-2.9444304e-01 7.8727525e-01 4.3879974e+01 
-8.7554991e-02 7.5255024e-01 4.4042213e+01 
-1.6445170e-01 6.4084798e-01 4.4041008e+01 
-3.2357255e-01 9.1726828e-01 4.3757431e+01 
-3.9587301e-01 8.5463828e-01 4.3755711e+01 
-2.0429766e-01 8.4651643e-01 4.3813354e+01 
-2.8633916e-01 7.3175091e-01 4.3809875e+01 
-2.6899619e-02 6.8901783e-01 4.4200001e+01 
-1.0567340e-01 7.7152997e-01 4.3875790e+01 
-4.3633053e-01 9.6407831e-01 4.3693161e+01 
-8.7133333e-02 5.9509218e-01 4.4200001e+01 
-1.8777622e-01 6.5475601e-01 4.3873402e+01 
-2.0131156e-01 8.4642249e-01 4.3679543e+01 
-3.2225290e-01 9.1755641e-01 4.3628902e+01 
-3.9584404e-01 8.5419410e-01 4.3627178e+01 
-1.0114321e-03 6.6670936e-01 4.3939713e+01 
-2.8492665e-01 7.2954547e-01 4.3675007e+01 
-1.0131179e-01 7.7015632e-01 4.3743176e+01 
-6.0682178e-02 5.7631296e-01 4.3938457e+01 
3.9444737e-02 6.2338209e-01 4.4053139e+01 
-1.8470748e-01 6.5131217e-01 4.3739727e+01 
-7.0938184e-03 5.4737431e-01 4.4052326e+01 
-4.3632981e-01 9.6407413e-01 4.3564159e+01 
7.6947339e-02 5.8804804e-01 4.4200001e+01 
-1.2721874e-02 6.8194175e-01 4.3817982e+01 
-7.7214435e-02 5.8474159e-01 4.3819649e+01 
4.0195532e-02 5.2425718e-01 4.4200001e+01 
-1.9826968e-01 8.4632379e-01 4.3543118e+01 
-9.6842363e-02 7.6872379e-01 4.3607994e+01 
-3.2091641e-01 9.1783977e-01 4.3499420e+01 
-3.9580306e-01 8.5372573e-01 4.3497700e+01 
-2.8348783e-01 7.2729832e-01 4.3537586e+01 
-1.8155001e-01 6.4778340e-01 4.3603539e+01 
1.5678726e-01 5.2239102e-01 4.4060219e+01 
1.0298219e-02 6.6009766e-01 4.3674484e+01 
1.3250886e-01 4.7546524e-01 4.4058990e+01 
-4.3632913e-01 9.6407002e-01 4.3434200e+01 
-5.0139543e-02 5.6696451e-01 4.3671154e+01 
1.3504514e-01 5.4209155e-01 4.3856747e+01 
1.0361936e-01 4.8715758e-01 4.3855240e+01 
2.0846681e-01 4.8028421e-01 4.4200001e+01 
1.9279444e-01 4.4799727e-01 4.4200001e+01 
-9.2261828e-02 7.6722860e-01 4.3470158e+01 
-1.4701239e-03 6.7547697e-01 4.3552124e+01 
-1.9517080e-01 8.4621930e-01 4.3403992e+01 
-3.1956279e-01 9.1811794e-01 4.3368977e+01 
-3.9574999e-01 8.5323322e-01 4.3367252e+01 
-1.7830023e-01 6.4416617e-01 4.3464752e+01 
-6.7131944e-02 5.7555372e-01 4.3547829e+01 
-2.8202194e-01 7.2500783e-01 4.3397518e+01 
-4.3632844e-01 9.6406585e-01 4.3303261e+01 
1.5138821e-01 5.3037512e-01 4.3609200e+01 
1.2119007e-01 4.7490793e-01 4.3606068e+01 
-8.7566733e-02 7.6566672e-01 4.3329563e+01 
-1.7495437e-01 6.4045686e-01 4.3323273e+01 
-3.1819177e-01 9.1839045e-01 4.3237537e+01 
-3.9568463e-01 8.5271639e-01 4.3235813e+01 
2.2269404e-02 6.5294570e-01 4.3398811e+01 
-1.9201367e-01 8.4610778e-01 4.3262066e+01 
-3.8899176e-02 5.5709696e-01 4.3393635e+01 
-2.8052819e-01 7.2267252e-01 4.3254715e+01 
3.7877345e-01 3.8273901e-01 4.4200001e+01 
-4.3632776e-01 9.6406174e-01 4.3171322e+01 
3.9241230e-01 3.7329337e-01 4.3965439e+01 
1.0283732e-02 6.6872352e-01 4.3271511e+01 
-5.6385640e-02 5.6585240e-01 4.3265472e+01 
-8.2753494e-02 7.6403379e-01 4.3186119e+01 
-4.0345609e-01 8.6371827e-01 4.3104889e+01 
-3.1680310e-01 9.1865683e-01 4.3105087e+01 
-1.7150842e-01 6.3665158e-01 4.3179005e+01 
-1.8879703e-01 8.4598809e-01 4.3117241e+01 
-2.7900568e-01 7.2029078e-01 4.3109074e+01 
4.0610775e-01 3.6380205e-01 4.3729839e+01 
1.6776134e-01 5.1882964e-01 4.3331150e+01 
-4.3632707e-01 9.6405768e-01 4.3038357e+01 
1.4031014e-01 4.6124566e-01 4.3307755e+01 
3.4952711e-02 6.4519531e-01 4.3111935e+01 
-7.7818394e-02 7.6232505e-01 4.3039719e+01 
-3.1539652e-01 9.1891652e-01 4.2971603e+01 
-3.9551663e-01 8.5160977e-01 4.2969879e+01 
-2.6899155e-02 5.4666573e-01 4.3105160e+01 
-1.6795819e-01 6.3274628e-01 4.3031849e+01 
-1.8551964e-01 8.4585863e-01 4.2969406e+01 
4.1985780e-01 3.5425979e-01 4.3493168e+01 
-2.7745360e-01 7.1786088e-01 4.2960495e+01 
-4.3632638e-01 9.6405357e-01 4.2904346e+01 
2.2723136e-02 6.6139150e-01 4.2979332e+01 
-4.4916678e-02 5.5559248e-01 4.2971806e+01 
-3.1397179e-01 9.1916907e-01 4.2837063e+01 
-3.9541367e-01 8.5101974e-01 4.2835335e+01 
-7.2757579e-02 7.6053542e-01 4.2890255e+01 
-1.6429928e-01 6.2873662e-01 4.2881699e+01 
1.8463810e-01 5.0694346e-01 4.3035332e+01 
-1.8218029e-01 8.4571803e-01 4.2818455e+01 
1.5503895e-01 4.5003417e-01 4.3027725e+01 
-2.7587104e-01 7.1538109e-01 4.2808868e+01 
4.3366045e-01 3.4466109e-01 4.3255390e+01 
-4.3632573e-01 9.6404958e-01 4.2769268e+01 
-3.8429454e-01 8.3484912e-01 4.2710606e+01 
-3.1252861e-01 9.1941386e-01 4.2701439e+01 
4.8404284e-02 6.3678014e-01 4.2813030e+01 
-1.4070326e-02 5.3562075e-01 4.2804932e+01 
-6.7567028e-02 7.5865942e-01 4.2737610e+01 
-1.6052702e-01 6.2461799e-01 4.2728443e+01 
-1.7877772e-01 8.4556442e-01 4.2664265e+01 
-4.3632504e-01 9.6404558e-01 4.2633099e+01 
-2.7425703e-01 7.1284944e-01 4.2654083e+01 
4.4751364e-01 3.3500037e-01 4.3016472e+01 
3.5901129e-02 6.5341437e-01 4.2674721e+01 
-3.7959340e-01 8.2794034e-01 4.2568317e+01 
-3.1106678e-01 9.1965032e-01 4.2564713e+01 
-3.2659348e-02 5.4472327e-01 4.2665997e+01 
2.0396979e-01 4.9291667e-01 4.2740131e+01 
-6.2242586e-02 7.5669110e-01 4.2581669e+01 
1.7765003e-01 4.3475360e-01 4.2732578e+01 
-1.5663649e-01 6.2038553e-01 4.2571964e+01 
-4.3632439e-01 9.6404165e-01 4.2495808e+01 
-1.7531081e-01 8.4539592e-01 4.2506718e+01 
-2.7261066e-01 7.1026409e-01 4.2496017e+01 
-3.0958602e-01 9.1987789e-01 4.2426853e+01 
-3.7859210e-01 8.2613736e-01 4.2421188e+01 
4.6141517e-01 3.2527190e-01 4.2776375e+01 
6.2686495e-02 6.2762415e-01 4.2501175e+01 
-3.3570320e-04 5.2390522e-01 4.2492062e+01 
-5.6779940e-02 7.5462401e-01 4.2422298e+01 
-4.3632373e-01 9.6403772e-01 4.2357380e+01 
-1.5262254e-01 6.1603409e-01 4.2412144e+01 
-1.7177837e-01 8.4521037e-01 4.2345684e+01 
-2.7093092e-01 7.0762289e-01 4.2334549e+01 
-3.0808610e-01 9.2009580e-01 4.2287842e+01 
-3.8275370e-01 8.3137155e-01 4.2275047e+01 
4.9876589e-02 6.4471585e-01 4.2356720e+01 
-1.9539909e-02 5.3318781e-01 4.2347118e+01 
-4.3632311e-01 9.6403396e-01 4.2217781e+01 
2.1959943e-01 4.8236796e-01 4.2385345e+01 
-5.1174615e-02 7.5245124e-01 4.2259373e+01 
1.9034323e-01 4.2346162e-01 4.2378918e+01 
-1.4847966e-01 6.1155808e-01 4.2248856e+01 
4.7536272e-01 3.1546980e-01 4.2535065e+01 
-1.6817927e-01 8.4500539e-01 4.2181026e+01 
-2.6921678e-01 7.0492369e-01 4.2169544e+01 
-3.0656675e-01 9.2030340e-01 4.2147648e+01 
-3.9470181e-01 8.4769493e-01 4.2145920e+01 
7.7868804e-02 6.1763972e-01 4.2175373e+01 
-4.3632248e-01 9.6403021e-01 4.2076988e+01 
1.4390758e-02 5.1145434e-01 4.2165581e+01 
-4.5421973e-02 7.5016522e-01 4.2092751e+01 
-1.4420210e-01 6.0695171e-01 4.2081959e+01 
-3.0502778e-01 9.2049998e-01 4.2006248e+01 
-4.0175444e-01 8.5747409e-01 4.2004128e+01 
-1.6451253e-01 8.4477836e-01 4.2012604e+01 
4.8935395e-01 3.0558801e-01 4.2292507e+01 
-2.6746723e-01 7.0216429e-01 4.2000870e+01 
6.4714879e-02 6.3520777e-01 4.2024277e+01 
-4.3632188e-01 9.6402657e-01 4.1934975e+01 
-5.4755262e-03 5.2092212e-01 4.2014156e+01 
-2.3078828e-01 8.1064087e-01 4.1931458e+01 
2.3550548e-01 4.7116494e-01 4.2073269e+01 
2.0610523e-01 4.1123796e-01 4.2066772e+01 
-3.9517213e-02 7.4775779e-01 4.1922287e+01 
-1.3978374e-01 6.0220873e-01 4.1911320e+01 
-3.0346894e-01 9.2068475e-01 4.1863613e+01 
-3.9432141e-01 8.4618556e-01 4.1861881e+01 
-1.6077711e-01 8.4452641e-01 4.1840263e+01 
-2.6568118e-01 6.9934219e-01 4.1828377e+01 
-4.3632129e-01 9.6402299e-01 4.1791718e+01 
5.0338638e-01 2.9562023e-01 4.2048656e+01 
9.4028555e-02 6.0672593e-01 4.1834507e+01 
3.0205652e-02 4.9819478e-01 4.1824417e+01 
-3.8116732e-01 8.2744831e-01 4.1725647e+01 
-3.0189002e-01 9.2085695e-01 4.1719719e+01 
-3.3455357e-02 7.4522001e-01 4.1747829e+01 
-1.3521814e-01 5.9732240e-01 4.1736786e+01 
-4.3632072e-01 9.6401960e-01 4.1647179e+01 
-1.5697217e-01 8.4424627e-01 4.1663853e+01 
-2.6385748e-01 6.9645494e-01 4.1651920e+01 
8.0488607e-02 6.2478805e-01 4.1676235e+01 
2.6870471e-01 4.4547972e-01 4.1752304e+01 
9.6269641e-03 5.0785345e-01 4.1665993e+01 
2.4764967e-01 3.8646612e-01 4.1743168e+01 
-3.0029076e-01 9.2101562e-01 4.1574532e+01 
-3.9388368e-01 8.4456980e-01 4.1572796e+01 
5.1745731e-01 2.8556010e-01 4.1803486e+01 
-2.7231261e-02 7.4254233e-01 4.1569210e+01 
-1.3049847e-01 5.9228569e-01 4.1558201e+01 
-4.3632016e-01 9.6401632e-01 4.1501339e+01 
-1.5309690e-01 8.4393430e-01 4.1483204e+01 
-2.6199502e-01 6.9349992e-01 4.1471333e+01 
-2.9867104e-01 9.2115986e-01 4.1428024e+01 
-3.9364263e-01 8.4372103e-01 4.1426289e+01 
1.1125199e-01 5.9476525e-01 4.1477348e+01 
4.7217656e-02 4.8404291e-01 4.1467384e+01 
-4.3631962e-01 9.6401310e-01 4.1354160e+01 
-2.0839609e-02 7.3971421e-01 4.1386261e+01 
-1.2561750e-01 5.8709091e-01 4.1375404e+01 
5.3156406e-01 2.7540097e-01 4.1556946e+01 
-1.4915068e-01 8.4358656e-01 4.1298138e+01 
-2.9703063e-01 9.2128879e-01 4.1280167e+01 
-3.9338648e-01 8.4284443e-01 4.1278431e+01 
-2.6009262e-01 6.9047421e-01 4.1286449e+01 
2.9365057e-01 4.2687622e-01 4.1391586e+01 
9.7278498e-02 6.1333776e-01 4.1311302e+01 
2.7470219e-01 3.6807936e-01 4.1382729e+01 
2.5872495e-02 4.9389899e-01 4.1301384e+01 
-4.3631911e-01 9.6401012e-01 4.1205620e+01 
-1.4274905e-02 7.3672432e-01 4.1198803e+01 
-1.2056758e-01 5.8173001e-01 4.1188221e+01 
-2.9536936e-01 9.2140132e-01 4.1130928e+01 
[...]
POINT_DATA 4496
FIELD FieldData 5
DISPLACEMENT 3 4496  float
7.8054303e-03 8.1859343e-03 -9.7860742e-05 
7.7731563e-03 8.1434632e-03 -9.7847631e-05 
7.8180339e-03 8.2141561e-03 -1.1005397e-04 
7.8358073e-03 8.1984755e-03 -6.9138543e-05 
7.7832281e-03 8.1315245e-03 -7.1462193e-05 
7.7686147e-03 8.1492374e-03 -1.1015561e-04 
7.7406634e-03 8.1007062e-03 -9.7833501e-05 
7.8342631e-03 8.2408600e-03 -1.1566294e-04 
7.8609837e-03 8.2218181e-03 -5.8900619e-05 
7.8017130e-03 8.1986962e-03 -1.1634986e-04 
7.8286137e-03 8.1788795e-03 -5.8525624e-05 
7.7507142e-03 8.0886167e-03 -7.1317147e-05 
7.7359346e-03 8.1066396e-03 -1.1057528e-04 
7.7685621e-03 8.1557417e-03 -1.1704717e-04 
7.8512393e-03 8.2637640e-03 -1.1626503e-04 
7.7956580e-03 8.1351725e-03 -5.8147729e-05 
7.7079488e-03 8.0576558e-03 -9.7817778e-05 
7.8790449e-03 8.2447026e-03 -5.7985151e-05 
7.7665048e-03 8.1124129e-03 -7.4485768e-05 
7.8167990e-03 8.2182307e-03 -1.1603067e-04 
7.8439582e-03 8.1989253e-03 -5.8379803e-05 
7.7030365e-03 8.0637503e-03 -1.1098575e-04 
7.7179782e-03 8.0454201e-03 -7.1171999e-05 
7.7347923e-03 8.1119826e-03 -1.1775549e-04 
7.7620996e-03 8.0906684e-03 -5.7762496e-05 
7.8730565e-03 8.2866270e-03 -1.1015180e-04 
7.7692848e-03 8.1573734e-03 -1.1777192e-04 
7.6750261e-03 8.0143111e-03 -9.7797063e-05 
7.8961672e-03 8.2718264e-03 -6.2805222e-05 
7.7973702e-03 8.1364010e-03 -5.7070905e-05 
7.7003893e-03 8.0673918e-03 -1.1847179e-04 
7.6699164e-03 8.0205621e-03 -1.1140275e-04 
7.6850280e-03 8.0019357e-03 -7.1027665e-05 
7.8115044e-03 8.2047675e-03 -1.0924175e-04 
7.7279173e-03 8.0453474e-03 -5.7374302e-05 
7.7354857e-03 8.1135044e-03 -1.1841214e-04 
7.8334063e-03 8.1896847e-03 -6.3231069e-05 
7.8513715e-03 8.2531758e-03 -1.0499691e-04 
7.7637825e-03 8.0918698e-03 -5.6688270e-05 
7.8698639e-03 8.2414644e-03 -6.7238856e-05 
7.6418696e-03 7.9706870e-03 -9.7777767e-05 
7.8979004e-03 8.3122002e-03 -1.0269952e-04 
7.7764085e-03 8.1606191e-03 -1.1137332e-04 
7.8007230e-03 8.1453538e-03 -6.1819228e-05 
7.9136053e-03 8.3031654e-03 -7.1601164e-05 
7.6653259e-03 8.0219386e-03 -1.1919628e-04 
7.7010482e-03 8.0687972e-03 -1.1905633e-04 
7.6365727e-03 7.9770852e-03 -1.1181337e-04 
7.6518510e-03 7.9581523e-03 -7.0865353e-05 
7.6931054e-03 7.9991873e-03 -5.6980538e-05 
7.7295769e-03 8.0465162e-03 -5.6299439e-05 
7.8780372e-03 8.2844561e-03 -1.0101292e-04 
7.7448152e-03 8.1176236e-03 -1.0989097e-04 
7.8892689e-03 8.2780709e-03 -7.8837722e-05 
7.6084966e-03 7.9267472e-03 -9.7749995e-05 
7.7668224e-03 8.1016719e-03 -6.2761930e-05 
7.8207524e-03 8.2100844e-03 -1.0207220e-04 
7.8338673e-03 8.2018571e-03 -7.5334909e-05 
7.9244319e-03 8.3446009e-03 -1.0007199e-04 
7.9323817e-03 8.3407480e-03 -8.5074455e-05 
7.6659559e-03 8.0232248e-03 -1.1970843e-04 
7.7095409e-03 8.0732610e-03 -1.1204909e-04 
7.6295915e-03 7.9756100e-03 -1.1993111e-04 
7.6029943e-03 7.9333000e-03 -1.1223058e-04 
7.6184506e-03 7.9140747e-03 -7.0708884e-05 
7.6947305e-03 8.0003254e-03 -5.5914494e-05 
7.7329390e-03 8.0557158e-03 -6.1297556e-05 
7.6576271e-03 7.9521602e-03 -5.6585726e-05 
7.5748865e-03 7.8825187e-03 -9.7726195e-05 
7.7598258e-03 8.1301043e-03 -1.0229387e-04 
7.7726250e-03 8.1216441e-03 -7.5689561e-05 
7.6301880e-03 7.9767695e-03 -1.2035508e-04 
7.6592178e-03 7.9532610e-03 -5.5520064e-05 
7.5691957e-03 7.8892261e-03 -1.1263757e-04 
7.5848284e-03 7.8697000e-03 -7.0549700e-05 
7.6755956e-03 8.0271177e-03 -1.1051552e-04 
7.5931614e-03 7.9283658e-03 -1.2066840e-04 
7.6977406e-03 8.0103921e-03 -6.2306754e-05 
7.6214727e-03 7.9042427e-03 -5.6185625e-05 
7.9484461e-03 8.3865412e-03 -1.1089804e-04 
7.5410460e-03 7.8379782e-03 -9.7703778e-05 
7.8902729e-03 8.3102593e-03 -1.1118868e-04 
7.6389834e-03 7.9810582e-03 -1.1274495e-04 
7.6625878e-03 7.9627177e-03 -6.0780425e-05 
7.5937291e-03 7.9293959e-03 -1.2100760e-04 
7.5485236e-03 7.8236032e-03 -7.2271476e-05 
7.5351419e-03 7.8448225e-03 -1.1305623e-04 
7.6230378e-03 7.9053156e-03 -5.5129567e-05 
7.5560198e-03 7.8802006e-03 -1.2141174e-04 
7.5846384e-03 7.8554247e-03 -5.5770062e-05 
7.8318119e-03 8.2335966e-03 -1.1147742e-04 
7.6909936e-03 8.0397921e-03 -1.0257916e-04 
7.5069624e-03 7.7931453e-03 -9.7680102e-05 
7.6990495e-03 8.0251517e-03 -7.5975455e-05 
7.6036896e-03 7.9330411e-03 -1.1111201e-04 
7.5565544e-03 7.8810882e-03 -1.2165458e-04 
7.5008883e-03 7.8001348e-03 -1.1345350e-04 
7.5168628e-03 7.7800155e-03 -7.0208771e-05 
7.6260041e-03 7.9156542e-03 -6.1868050e-05 
7.5861430e-03 7.8564445e-03 -5.4728800e-05 
7.5181411e-03 7.8310613e-03 -1.2215553e-04 
7.7730599e-03 8.1565017e-03 -1.1176428e-04 
7.5470679e-03 7.8056543e-03 -5.5363515e-05 
7.4726767e-03 7.7479840e-03 -9.7638716e-05 
7.5656632e-03 7.8851832e-03 -1.1340879e-04 
7.5895088e-03 7.8661675e-03 -6.0280272e-05 
7.4663847e-03 7.7551291e-03 -1.1386861e-04 
7.4825487e-03 7.7347304e-03 -7.0043585e-05 
7.5186435e-03 7.8318054e-03 -1.2230453e-04 
7.5485450e-03 7.8066466e-03 -5.4339718e-05 
7.6176994e-03 7.9436032e-03 -1.0287954e-04 
7.4794986e-03 7.7809240e-03 -1.2290064e-04 
7.6296139e-03 7.9338215e-03 -7.5972210e-05 
7.5087822e-03 7.7549466e-03 -5.4959284e-05 
7.7140341e-03 8.0790576e-03 -1.1207772e-04 
7.4381260e-03 7.7025592e-03 -9.7601216e-05 
7.4545494e-03 7.6954849e-03 -6.7433270e-05 
7.4316580e-03 7.7098468e-03 -1.1425269e-04 
7.5289370e-03 7.8351963e-03 -1.1167194e-04 
7.5514545e-03 7.8172768e-03 -6.1463979e-05 
7.4799624e-03 7.7815400e-03 -1.2295028e-04 
7.5101866e-03 7.7558788e-03 -5.3934767e-05 
7.4401000e-03 7.7298116e-03 -1.2364612e-04 
7.4033602e-03 7.6568197e-03 -9.7550903e-05 
7.4697202e-03 7.7032093e-03 -5.4541619e-05 
7.6547153e-03 8.0012158e-03 -1.1236682e-04 
7.4894140e-03 7.7854455e-03 -1.1403360e-04 
7.4198581e-03 7.6488266e-03 -6.6289991e-05 
7.3966999e-03 7.6642409e-03 -1.1461855e-04 
7.5135361e-03 7.7658845e-03 -5.9807160e-05 
7.5451368e-03 7.8483168e-03 -1.0309282e-04 
7.4405344e-03 7.7302554e-03 -1.2360365e-04 
7.5573055e-03 7.8393854e-03 -7.6644210e-05 
7.4710860e-03 7.7041285e-03 -5.3571781e-05 
7.3683728e-03 7.6107625e-03 -9.7475655e-05 
7.3998803e-03 7.6776473e-03 -1.2440914e-04 
7.4298792e-03 7.6504997e-03 -5.4131302e-05 
7.3614800e-03 7.6183379e-03 -1.1500943e-04 
7.3827310e-03 7.5997543e-03 -6.5948298e-05 
7.5951763e-03 7.9231160e-03 -1.1264878e-04 
7.4511780e-03 7.7333814e-03 -1.1217545e-04 
7.4739354e-03 7.7150683e-03 -6.1087041e-05 
7.4002943e-03 7.6779355e-03 -1.2421687e-04 
7.3331241e-03 7.5644376e-03 -9.7418670e-05 
7.4311853e-03 7.6513630e-03 -5.3181710e-05 
7.3588500e-03 7.6244199e-03 -1.2515071e-04 
7.3892400e-03 7.5967573e-03 -5.3716383e-05 
7.3260493e-03 7.5721499e-03 -1.1537985e-04 
7.3442198e-03 7.5498684e-03 -6.6652428e-05 
7.4100783e-03 7.6816166e-03 -1.1459413e-04 
7.4345451e-03 7.6616807e-03 -5.9353588e-05 
7.2976570e-03 7.5178328e-03 -9.7352618e-05 
7.4565564e-03 7.7322107e-03 -1.0353660e-04 
7.3592402e-03 7.6245572e-03 -1.2482273e-04 
7.4691195e-03 7.7229976e-03 -7.6165212e-05 
7.3904898e-03 7.5975885e-03 -5.2800307e-05 
7.5353584e-03 7.8446288e-03 -1.1291257e-04 
7.3169768e-03 7.5701051e-03 -1.2589189e-04 
7.3477672e-03 7.5419522e-03 -5.3301490e-05 
7.2904066e-03 7.5256960e-03 -1.1573050e-04 
7.3074591e-03 7.5039151e-03 -6.9072783e-05 
7.3702657e-03 7.6274262e-03 -1.1262144e-04 
7.2619542e-03 7.4709109e-03 -9.7293108e-05 
7.3933047e-03 7.6088752e-03 -6.0783132e-05 
7.3173484e-03 7.5700926e-03 -1.2542265e-04 
7.3490036e-03 7.5427555e-03 -5.2402087e-05 
7.2544585e-03 7.4788714e-03 -1.1612408e-04 
7.2690644e-03 7.4549620e-03 -7.0550406e-05 
7.2742337e-03 7.5146765e-03 -1.2662887e-04 
7.4753053e-03 7.7658338e-03 -1.1318318e-04 
7.3054987e-03 7.4861045e-03 -5.2858319e-05 
7.3275222e-03 7.5735901e-03 -1.1508627e-04 
7.2259372e-03 7.4236593e-03 -9.7243588e-05 
7.3523615e-03 7.5534135e-03 -5.8961221e-05 
7.2618467e-03 7.4717519e-03 -9.8335498e-05 
7.3793344e-03 7.6309731e-03 -1.0383771e-04 
7.3920484e-03 7.6217549e-03 -7.6192460e-05 
7.2746039e-03 7.5145359e-03 -1.2602034e-04 
7.3066633e-03 7.4868635e-03 -5.2003932e-05 
7.2182552e-03 7.4317316e-03 -1.1648912e-04 
7.2356556e-03 7.4093989e-03 -6.8678062e-05 
7.2305929e-03 7.4581406e-03 -1.2737478e-04 
7.2623640e-03 7.4290908e-03 -5.2412961e-05 
7.1896962e-03 7.3760776e-03 -9.7158198e-05 
7.4150842e-03 7.6868734e-03 -1.1346347e-04 
7.2860220e-03 7.5171348e-03 -1.1300296e-04 
7.3093888e-03 7.4985106e-03 -6.0529004e-05 
7.2056754e-03 7.3673301e-03 -6.5733693e-05 
7.1818600e-03 7.3843300e-03 -1.1681280e-04 
7.2309389e-03 7.4577830e-03 -1.2660986e-04 
7.2634285e-03 7.4298149e-03 -5.1597654e-05 
7.1532396e-03 7.3281862e-03 -9.7042233e-05 
7.1860370e-03 7.4003749e-03 -1.2811426e-04 
7.2182771e-03 7.3709274e-03 -5.1994484e-05 
7.2415136e-03 7.4610952e-03 -1.1550056e-04 
7.3035373e-03 7.5313007e-03 -1.0371350e-04 
7.2667487e-03 7.4408236e-03 -5.8617876e-05 
7.3152706e-03 7.5232307e-03 -7.8628858e-05 
7.1451738e-03 7.3366011e-03 -1.1716490e-04 
7.1629742e-03 7.3137325e-03 -6.8203954e-05 
7.3547671e-03 7.6078740e-03 -1.1373235e-04 
7.1863611e-03 7.3998403e-03 -1.2718450e-04 
7.2193146e-03 7.3716491e-03 -5.1240342e-05 
7.1165292e-03 7.2800568e-03 -9.6940785e-05 
7.1405154e-03 7.3414068e-03 -1.2881651e-04 
7.1732793e-03 7.3116231e-03 -5.1588628e-05 
7.1082865e-03 7.2885924e-03 -1.1747525e-04 
7.1262508e-03 7.2654998e-03 -6.8005837e-05 
7.1982173e-03 7.4022231e-03 -1.1328543e-04 
7.2219758e-03 7.3837466e-03 -6.0307608e-05 
7.0795459e-03 7.2316723e-03 -9.6857242e-05 
7.1408320e-03 7.3407074e-03 -1.2771542e-04 
7.1742637e-03 7.3123085e-03 -5.0839877e-05 
7.2942064e-03 7.5285225e-03 -1.1394740e-04 
7.0940251e-03 7.2812270e-03 -1.2950227e-04 
7.0711304e-03 7.2403355e-03 -1.1778421e-04 
7.0892479e-03 7.2169411e-03 -6.7747773e-05 
7.1273507e-03 7.2511057e-03 -5.1112067e-05 
7.2162203e-03 7.4169096e-03 -1.0387701e-04 
7.1518542e-03 7.3438343e-03 -1.1583729e-04 
7.2278865e-03 7.4095014e-03 -7.9536418e-05 
7.1775988e-03 7.3237270e-03 -5.8290570e-05 
7.0423465e-03 7.1828878e-03 -9.6751908e-05 
7.0943567e-03 7.2803288e-03 -1.2826185e-04 
7.1282252e-03 7.2517558e-03 -5.0448685e-05 
7.0337136e-03 7.1916725e-03 -1.1811690e-04 
7.0520509e-03 7.1680578e-03 -6.7525922e-05 
7.0465379e-03 7.2197309e-03 -1.3022459e-04 
7.0804218e-03 7.1893786e-03 -5.0678213e-05 
7.2334837e-03 7.4490467e-03 -1.1419064e-04 
7.0048454e-03 7.1338625e-03 -9.6652228e-05 
7.1066599e-03 7.2824499e-03 -1.1348959e-04 
7.1308063e-03 7.2642593e-03 -6.0182614e-05 
6.9960365e-03 7.1427617e-03 -1.1844143e-04 
7.0145400e-03 7.1188756e-03 -6.7265719e-05 
7.0468225e-03 7.2186072e-03 -1.2876026e-04 
7.0812465e-03 7.1899891e-03 -5.0080027e-05 
6.9671297e-03 7.0844740e-03 -9.6519885e-05 
6.9980146e-03 7.1569397e-03 -1.3086645e-04 
7.0324489e-03 7.1263551e-03 -5.0212660e-05 
7.1251323e-03 7.2977091e-03 -1.0405472e-04 
7.1367892e-03 7.2911326e-03 -8.0562088e-05 
7.0593702e-03 7.2206147e-03 -1.1349251e-04 
7.1726688e-03 7.3695322e-03 -1.1443028e-04 
6.9581415e-03 7.0935194e-03 -1.1869891e-04 
6.9768229e-03 7.0694424e-03 -6.7066663e-05 
7.0837261e-03 7.2027398e-03 -6.0112106e-05 
6.9983089e-03 7.1556303e-03 -1.2922751e-04 
7.0332023e-03 7.1269292e-03 -4.9713330e-05 
6.9291205e-03 7.0348997e-03 -9.6405260e-05 
6.9483621e-03 7.0927767e-03 -1.3153444e-04 
6.9835214e-03 7.0620673e-03 -4.9764498e-05 
6.9199833e-03 7.0441086e-03 -1.1894829e-04 
6.9388035e-03 7.0197145e-03 -6.6792658e-05 
7.0110774e-03 7.1574911e-03 -1.1351349e-04 
6.9556241e-03 7.0506288e-03 -7.6437558e-05 
7.0356722e-03 7.1399715e-03 -6.0124148e-05 
6.8908883e-03 6.9849524e-03 -9.6245138e-05 
7.1115796e-03 7.2895885e-03 -1.1462386e-04 
7.0472118e-03 7.1960781e-03 -1.0443429e-04 
6.9487090e-03 7.0912996e-03 -1.2959819e-04 
7.0596123e-03 7.1882037e-03 -7.8435922e-05 
6.9841668e-03 7.0626750e-03 -4.9339633e-05 
6.8815351e-03 6.9942633e-03 -1.1915557e-04 
6.9005396e-03 6.9696861e-03 -6.6536821e-05 
6.8977750e-03 7.0273629e-03 -1.3206371e-04 
6.9334554e-03 6.9965236e-03 -4.9396123e-05 
6.8523921e-03 6.9348104e-03 -9.6126547e-05 
6.9617559e-03 7.0930682e-03 -1.1352884e-04 
6.9865715e-03 7.0759328e-03 -6.0110331e-05 
6.8980646e-03 7.0256442e-03 -1.3001756e-04 
6.8429126e-03 6.9442056e-03 -1.1939722e-04 
6.8620834e-03 6.9194059e-03 -6.6264976e-05 
6.9340295e-03 6.9970856e-03 -4.8937905e-05 
7.0502819e-03 7.2097066e-03 -1.1489023e-04 
6.8459543e-03 6.9605024e-03 -1.3270916e-04 
6.8136547e-03 6.8843383e-03 -9.5967305e-05 
6.9992850e-03 7.1153417e-03 -8.4837025e-05 
6.9902888e-03 7.1215183e-03 -1.0422330e-04 
6.8823271e-03 6.9296258e-03 -4.8884580e-05 
6.9113406e-03 7.0273071e-03 -1.1345605e-04 
6.9363555e-03 7.0105530e-03 -6.0166007e-05 
6.8039745e-03 6.8938388e-03 -1.1964872e-04 
6.8233050e-03 6.8688239e-03 -6.5989057e-05 
6.8462491e-03 6.9585382e-03 -1.3040821e-04 
6.8828268e-03 6.9301333e-03 -4.8567272e-05 
6.7745876e-03 6.8335398e-03 -9.5794137e-05 
6.9889277e-03 7.1296566e-03 -1.1503397e-04 
6.7929053e-03 6.8921400e-03 -1.3333431e-04 
6.8300427e-03 6.8612820e-03 -4.8369373e-05 
6.7647207e-03 6.8431827e-03 -1.1986055e-04 
6.7841862e-03 6.8179243e-03 -6.5733817e-05 
6.9379862e-03 7.0355055e-03 -8.4931999e-05 
6.9290409e-03 7.0417747e-03 -1.0436915e-04 
6.8586823e-03 6.9588167e-03 -1.1343942e-04 
6.8834680e-03 6.9416668e-03 -6.0018410e-05 
6.7856181e-03 6.8397899e-03 -8.7166263e-05 
6.7353295e-03 6.7825215e-03 -9.5595198e-05 
6.7931702e-03 6.8900790e-03 -1.3092661e-04 
6.8304995e-03 6.8617384e-03 -4.8093723e-05 
6.7254016e-03 6.7921253e-03 -1.1970684e-04 
6.7448444e-03 6.7670229e-03 -6.5764820e-05 
6.7396634e-03 6.8235444e-03 -1.3376628e-04 
6.9275186e-03 7.0496933e-03 -1.1515868e-04 
6.7779934e-03 6.7934897e-03 -4.7969868e-05 
6.6964431e-03 6.7321868e-03 -9.5456882e-05 
6.8034572e-03 6.8877977e-03 -1.1421645e-04 
6.8301591e-03 6.8715103e-03 -5.9014092e-05 
6.8768766e-03 6.9561298e-03 -8.5061904e-05 
6.8680020e-03 6.9624358e-03 -1.0446167e-04 
6.7331740e-03 6.7719147e-03 -8.7202803e-05 
6.6865496e-03 6.7417701e-03 -1.1951420e-04 
6.7397747e-03 6.8215132e-03 -1.3162935e-04 
6.7058778e-03 6.7166439e-03 -6.5735076e-05 
6.7785340e-03 6.7938971e-03 -4.7523499e-05 
6.6580153e-03 6.6822977e-03 -9.5229785e-05 
6.6875974e-03 6.7565427e-03 -1.3418638e-04 
6.7269560e-03 6.7271790e-03 -4.7579309e-05 
6.8662632e-03 6.9700303e-03 -1.1530118e-04 
6.7498046e-03 6.8192896e-03 -1.1532328e-04 
6.7783175e-03 6.8033747e-03 -5.8008030e-05 
6.6479640e-03 6.6918191e-03 -1.1941032e-04 
6.6672713e-03 6.6668377e-03 -6.5720473e-05 
6.7942603e-03 6.8670595e-03 -1.0484945e-04 
6.8076551e-03 6.8601207e-03 -7.8339603e-05 
6.6875382e-03 6.7545413e-03 -1.3230884e-04 
6.7275311e-03 6.7273728e-03 -4.6943482e-05 
6.6690003e-03 6.6888644e-03 -8.6988584e-05 
6.6198986e-03 6.6330298e-03 -9.5052608e-05 
6.6768923e-03 6.6621574e-03 -4.7132577e-05 
6.6365101e-03 6.6908994e-03 -1.3456550e-04 
6.6098385e-03 6.6424557e-03 -1.1923897e-04 
6.6290428e-03 6.6176131e-03 -6.5700580e-05 
6.7274128e-03 6.7366087e-03 -5.7004912e-05 
6.6972529e-03 6.7522638e-03 -1.1641275e-04 
6.8052998e-03 6.8910001e-03 -1.1547207e-04 
6.5820697e-03 6.5842611e-03 -9.4895477e-05 
6.6774432e-03 6.6622212e-03 -4.6369110e-05 
6.6363015e-03 6.6890232e-03 -1.3296006e-04 
6.7467224e-03 6.8053505e-03 -1.0480440e-04 
6.7440439e-03 6.7787357e-03 -7.9478610e-05 
6.5719830e-03 6.5936004e-03 -1.1904245e-04 
6.5892637e-03 6.5671131e-03 -6.6405672e-05 
6.6277767e-03 6.5983711e-03 -4.6578170e-05 
6.5864548e-03 6.6268086e-03 -1.3501728e-04 
6.5836241e-03 6.5817558e-03 -9.0058493e-05 
6.5446068e-03 6.5358495e-03 -9.4649324e-05 
6.6773272e-03 6.6711470e-03 -5.6125431e-05 
6.6527901e-03 6.6905185e-03 -1.1183025e-04 
6.6281855e-03 6.5984009e-03 -4.5920249e-05 
6.5861163e-03 6.6248239e-03 -1.3356462e-04 
6.5344507e-03 6.5451334e-03 -1.1880486e-04 
6.7447964e-03 6.8127699e-03 -1.1570302e-04 
6.5534962e-03 6.5204408e-03 -6.5569300e-05 
6.5715471e-03 6.5593882e-03 -8.2634724e-05 
6.6886116e-03 6.7070452e-03 -7.9361533e-05 
6.5074642e-03 6.4880392e-03 -9.4447285e-05 
6.5793185e-03 6.5359315e-03 -4.6282348e-05 
6.5373410e-03 6.5638642e-03 -1.3529624e-04 
6.6864681e-03 6.7275614e-03 -1.0488506e-04 
6.6281739e-03 6.6070631e-03 -5.5144214e-05 
6.5952907e-03 6.6224430e-03 -1.1826833e-04 
6.4972658e-03 6.4972523e-03 -1.1865475e-04 
6.5162713e-03 6.4726598e-03 -6.5516346e-05 
6.5798531e-03 6.5358486e-03 -4.5352055e-05 
6.5369038e-03 6.5619540e-03 -1.3406495e-04 
6.5153814e-03 6.4847232e-03 -7.9789366e-05 
6.4706085e-03 6.4406944e-03 -9.4251664e-05 
6.6844625e-03 6.7349388e-03 -1.1594777e-04 
6.5318225e-03 6.4746197e-03 -4.5777822e-05 
6.4891176e-03 6.5022763e-03 -1.3560486e-04 
6.6282391e-03 6.6243755e-03 -7.4117001e-05 
6.6075572e-03 6.6267112e-03 -1.0586459e-04 
6.4603728e-03 6.4498181e-03 -1.1844053e-04 
6.5798969e-03 6.5441681e-03 -5.4245233e-05 
6.4821569e-03 6.4249802e-03 -6.1046077e-05 
6.5458268e-03 6.5596667e-03 -1.1919823e-04 
6.4339889e-03 6.3937535e-03 -9.4062110e-05 
6.5323049e-03 6.4744102e-03 -4.4776287e-05 
6.4885728e-03 6.5004355e-03 -1.3452789e-04 
6.4426097e-03 6.3784434e-03 -6.5392444e-05 
6.4218296e-03 6.3984017e-03 -1.1605048e-04 
6.4851218e-03 6.4144712e-03 -4.5341309e-05 
6.4417422e-03 6.4418763e-03 -1.3589588e-04 
6.6243582e-03 6.6574491e-03 -1.1602177e-04 
6.4409832e-03 6.4031365e-03 -9.4557756e-05 
6.5324390e-03 6.4825704e-03 -5.3392287e-05 
6.4971726e-03 6.4980616e-03 -1.2009130e-04 
6.3976967e-03 6.3473815e-03 -9.3897805e-05 
6.4854957e-03 6.4142728e-03 -4.4332941e-05 
6.5667210e-03 6.5732813e-03 -1.0509365e-04 
6.5752282e-03 6.5669427e-03 -8.6025291e-05 
6.4180912e-03 6.3429885e-03 -6.0755843e-05 
6.4410591e-03 6.4399815e-03 -1.3492323e-04 
6.3925427e-03 6.3652834e-03 -1.2073860e-04 
6.5397485e-03 6.5032770e-03 -6.5921922e-05 
6.5141860e-03 6.5087387e-03 -1.0809227e-04 
6.4390511e-03 6.3554775e-03 -4.4989411e-05 
6.3953884e-03 6.3826675e-03 -1.3594366e-04 
6.3617863e-03 6.3014571e-03 -9.3651848e-05 
6.4857299e-03 6.4220824e-03 -5.2527459e-05 
6.4495387e-03 6.4378241e-03 -1.2089003e-04 
6.5642325e-03 6.5800296e-03 -1.1612088e-04 
6.3810721e-03 6.2942058e-03 -5.8800484e-05 
6.3531115e-03 6.3152756e-03 -1.2092813e-04 
6.4395154e-03 6.3551012e-03 -4.3845517e-05 
6.3945260e-03 6.3808844e-03 -1.3536013e-04 
6.3261664e-03 6.2559061e-03 -9.3413975e-05 
6.5070670e-03 6.4967559e-03 -1.0512186e-04 
6.5154582e-03 6.4904513e-03 -8.6174055e-05 
6.3938233e-03 6.2974459e-03 -4.4489254e-05 
6.3497927e-03 6.3247583e-03 -1.3612909e-04 
6.4397384e-03 6.3626822e-03 -5.1730716e-05 
6.3144327e-03 6.2653846e-03 -1.2016920e-04 
6.3929120e-03 6.3686329e-03 -1.2429406e-04 
6.4571099e-03 6.3966569e-03 -6.4798034e-05 
6.3356860e-03 6.2363357e-03 -5.8615165e-05 
6.3941856e-03 6.2970603e-03 -4.3398428e-05 
6.3488460e-03 6.3228598e-03 -1.3568789e-04 
6.2907063e-03 6.2108170e-03 -9.3174443e-05 
6.5045194e-03 6.5032970e-03 -1.1613574e-04 
6.3144523e-03 6.2407381e-03 -9.3052076e-05 
6.3492637e-03 6.2406068e-03 -4.4035351e-05 
6.4150481e-03 6.3812970e-03 -1.0737658e-04 
6.2800520e-03 6.2174853e-03 -1.1537196e-04 
6.3049374e-03 6.2677297e-03 -1.3628229e-04 
6.2989276e-03 6.1956681e-03 -6.5045875e-05 
6.3944855e-03 6.3044112e-03 -5.0925664e-05 
6.4477413e-03 6.4208140e-03 -1.0505268e-04 
6.4560613e-03 6.4145396e-03 -8.6174121e-05 
6.3567273e-03 6.3206744e-03 -1.2241858e-04 
6.3019013e-03 6.1896946e-03 -5.4209864e-05 
6.2555652e-03 6.1661899e-03 -9.2958937e-05 
6.3496092e-03 6.2401136e-03 -4.2849166e-05 
6.3038692e-03 6.2659369e-03 -1.3598758e-04 
6.2681329e-03 6.1572972e-03 -6.5650245e-05 
6.2453309e-03 6.1747218e-03 -1.1673417e-04 
6.3053789e-03 6.1846110e-03 -4.3608619e-05 
6.2608276e-03 6.2119472e-03 -1.3633298e-04 
6.4449944e-03 6.4271702e-03 -1.1619116e-04 
6.3498528e-03 6.2471516e-03 -5.0159175e-05 
6.2207142e-03 6.1219358e-03 -9.2714734e-05 
6.3020983e-03 6.2541049e-03 -1.2552484e-04 
6.2508495e-03 6.1278576e-03 -5.7174304e-05 
6.3705361e-03 6.2872660e-03 -6.5725137e-05 
6.3056280e-03 6.1840774e-03 -4.2392869e-05 
6.2712790e-03 6.1724503e-03 -7.7891018e-05 
6.2151970e-03 6.1401627e-03 -1.2070135e-04 
6.3886316e-03 6.3453782e-03 -1.0510920e-04 
6.2596770e-03 6.2100603e-03 -1.3627406e-04 
6.3968734e-03 6.3391458e-03 -8.6307031e-05 
6.2620859e-03 6.1297356e-03 -4.3275300e-05 
6.3236542e-03 6.2656845e-03 -1.0820693e-04 