# vtk DataFile Version 4.0
vtk output
ASCII
DATASET UNSTRUCTURED_GRID
POINTS 4496 float
-4.3633327e-01 9.6409470e-01 4.4200001e+01 
-4.3633258e-01 9.6409065e-01 4.4074627e+01 
-3.2152572e-01 9.1279918e-01 4.4200001e+01 
-3.8534868e-01 8.4052670e-01 4.4200001e+01 
-3.9589554e-01 8.5545403e-01 4.4010014e+01 
-3.2616228e-01 9.1667932e-01 4.4011734e+01 
-4.3633190e-01 9.6408653e-01 4.3948376e+01 
-2.1293370e-01 8.4677851e-01 4.4200001e+01 
-2.9042658e-01 7.3813015e-01 4.4200001e+01 
-2.1010752e-01 8.4669363e-01 4.4073502e+01 
-2.8908840e-01 7.3604190e-01 4.4072292e+01 
-3.9589015e-01 8.5505831e-01 4.3883316e+01 
-3.2487559e-01 9.1697580e-01 4.3885036e+01 
-2.0722924e-01 8.4660655e-01 4.3944645e+01 
-1.1981077e-01 7.7773046e-01 4.4200001e+01 
-2.8772619e-01 7.3391593e-01 4.3942276e+01 
-4.3633121e-01 9.6408242e-01 4.3821228e+01 
-1.9739023e-01 6.6468561e-01 4.4200001e+01 
-2.9444304e-01 7.8727525e-01 4.3879974e+01 
-8.7554991e-02 7.5255024e-01 4.4042213e+01 
-1.6445170e-01 6.4084798e-01 4.4041008e+01 
-3.2357255e-01 9.1726828e-01 4.3757431e+01 
-3.9587301e-01 8.5463828e-01 4.3755711e+01 
-2.0429766e-01 8.4651643e-01 4.3813354e+01 
-2.8633916e-01 7.3175091e-01 4.3809875e+01 
-2.6899619e-02 6.8901783e-01 4.4200001e+01 
-1.0567340e-01 7.7152997e-01 4.3875790e+01 
-4.3633053e-01 9.6407831e-01 4.3693161e+01 
-8.7133333e-02 5.9509218e-01 4.4200001e+01 
-1.8777622e-01 6.5475601e-01 4.3873402e+01 
-2.0131156e-01 8.4642249e-01 4.3679543e+01 
-3.2225290e-01 9.1755641e-01 4.3628902e+01 
-3.9584404e-01 8.5419410e-01 4.3627178e+01 
-1.0114321e-03 6.6670936e-01 4.3939713e+01 
-2.8492665e-01 7.2954547e-01 4.3675007e+01 
-1.0131179e-01 7.7015632e-01 4.3743176e+01 
-6.0682178e-02 5.7631296e-01 4.3938457e+01 
3.9444737e-02 6.2338209e-01 4.4053139e+01 
-1.8470748e-01 6.5131217e-01 4.3739727e+01 
-7.0938184e-03 5.4737431e-01 4.4052326e+01 
-4.3632981e-01 9.6407413e-01 4.3564159e+01 
7.6947339e-02 5.8804804e-01 4.4200001e+01 
-1.2721874e-02 6.8194175e-01 4.3817982e+01 
-7.7214435e-02 5.8474159e-01 4.3819649e+01 
4.0195532e-02 5.2425718e-01 4.4200001e+01 
-1.9826968e-01 8.4632379e-01 4.3543118e+01 
-9.6842363e-02 7.6872379e-01 4.3607994e+01 
-3.2091641e-01 9.1783977e-01 4.3499420e+01 
-3.9580306e-01 8.5372573e-01 4.3497700e+01 
-2.8348783e-01 7.2729832e-01 4.3537586e+01 
-1.8155001e-01 6.4778340e-01 4.3603539e+01 
1.5678726e-01 5.2239102e-01 4.4060219e+01 
1.0298219e-02 6.6009766e-01 4.3674484e+01 
1.3250886e-01 4.7546524e-01 4.4058990e+01 
-4.3632913e-01 9.6407002e-01 4.3434200e+01 
-5.0139543e-02 5.6696451e-01 4.3671154e+01 
1.3504514e-01 5.4209155e-01 4.3856747e+01 
1.0361936e-01 4.8715758e-01 4.3855240e+01 
2.0846681e-01 4.8028421e-01 4.4200001e+01 
1.9279444e-01 4.4799727e-01 4.4200001e+01 
-9.2261828e-02 7.6722860e-01 4.3470158e+01 
-1.4701239e-03 6.7547697e-01 4.3552124e+01 
-1.9517080e-01 8.4621930e-01 4.3403992e+01 
-3.1956279e-01 9.1811794e-01 4.3368977e+01 
-3.9574999e-01 8.5323322e-01 4.3367252e+01 
-1.7830023e-01 6.4416617e-01 4.3464752e+01 
-6.7131944e-02 5.7555372e-01 4.3547829e+01 
-2.8202194e-01 7.2500783e-01 4.3397518e+01 
-4.3632844e-01 9.6406585e-01 4.3303261e+01 
1.5138821e-01 5.3037512e-01 4.3609200e+01 
1.2119007e-01 4.7490793e-01 4.3606068e+01 
-8.7566733e-02 7.6566672e-01 4.3329563e+01 
-1.7495437e-01 6.4045686e-01 4.3323273e+01 
-3.1819177e-01 9.1839045e-01 4.3237537e+01 
-3.9568463e-01 8.5271639e-01 4.3235813e+01 
2.2269404e-02 6.5294570e-01 4.3398811e+01 
-1.9201367e-01 8.4610778e-01 4.3262066e+01 
-3.8899176e-02 5.5709696e-01 4.3393635e+01 
-2.8052819e-01 7.2267252e-01 4.3254715e+01 
3.7877345e-01 3.8273901e-01 4.4200001e+01 
-4.3632776e-01 9.6406174e-01 4.3171322e+01 
3.9241230e-01 3.7329337e-01 4.3965439e+01 
1.0283732e-02 6.6872352e-01 4.3271511e+01 
-5.6385640e-02 5.6585240e-01 4.3265472e+01 
-8.2753494e-02 7.6403379e-01 4.3186119e+01 
-4.0345609e-01 8.6371827e-01 4.3104889e+01 
-3.1680310e-01 9.1865683e-01 4.3105087e+01 
-1.7150842e-01 6.3665158e-01 4.3179005e+01 
-1.8879703e-01 8.4598809e-01 4.3117241e+01 
-2.7900568e-01 7.2029078e-01 4.3109074e+01 
4.0610775e-01 3.6380205e-01 4.3729839e+01 
1.6776134e-01 5.1882964e-01 4.3331150e+01 
-4.3632707e-01 9.6405768e-01 4.3038357e+01 
1.4031014e-01 4.6124566e-01 4.3307755e+01 
3.4952711e-02 6.4519531e-01 4.3111935e+01 
-7.7818394e-02 7.6232505e-01 4.3039719e+01 
-3.1539652e-01 9.1891652e-01 4.2971603e+01 
-3.9551663e-01 8.5160977e-01 4.2969879e+01 
-2.6899155e-02 5.4666573e-01 4.3105160e+01 
-1.6795819e-01 6.3274628e-01 4.3031849e+01 
-1.8551964e-01 8.4585863e-01 4.2969406e+01 
4.1985780e-01 3.5425979e-01 4.3493168e+01 
-2.7745360e-01 7.1786088e-01 4.2960495e+01 
-4.3632638e-01 9.6405357e-01 4.2904346e+01 
2.2723136e-02 6.6139150e-01 4.2979332e+01 
-4.4916678e-02 5.5559248e-01 4.2971806e+01 
-3.1397179e-01 9.1916907e-01 4.2837063e+01 
-3.9541367e-01 8.5101974e-01 4.2835335e+01 
-7.2757579e-02 7.6053542e-01 4.2890255e+01 
-1.6429928e-01 6.2873662e-01 4.2881699e+01 
1.8463810e-01 5.0694346e-01 4.3035332e+01 
-1.8218029e-01 8.4571803e-01 4.2818455e+01 
1.5503895e-01 4.5003417e-01 4.3027725e+01 
-2.7587104e-01 7.1538109e-01 4.2808868e+01 
4.3366045e-01 3.4466109e-01 4.3255390e+01 
-4.3632573e-01 9.6404958e-01 4.2769268e+01 
-3.8429454e-01 8.3484912e-01 4.2710606e+01 
-3.1252861e-01 9.1941386e-01 4.2701439e+01 
4.8404284e-02 6.3678014e-01 4.2813030e+01 
-1.4070326e-02 5.3562075e-01 4.2804932e+01 
-6.7567028e-02 7.5865942e-01 4.2737610e+01 
-1.6052702e-01 6.2461799e-01 4.2728443e+01 
-1.7877772e-01 8.4556442e-01 4.2664265e+01 
-4.3632504e-01 9.6404558e-01 4.2633099e+01 
-2.7425703e-01 7.1284944e-01 4.2654083e+01 
4.4751364e-01 3.3500037e-01 4.3016472e+01 
3.5901129e-02 6.5341437e-01 4.2674721e+01 
-3.7959340e-01 8.2794034e-01 4.2568317e+01 
-3.1106678e-01 9.1965032e-01 4.2564713e+01 
-3.2659348e-02 5.4472327e-01 4.2665997e+01 
2.0396979e-01 4.9291667e-01 4.2740131e+01 
-6.2242586e-02 7.5669110e-01 4.2581669e+01 
1.7765003e-01 4.3475360e-01 4.2732578e+01 
-1.5663649e-01 6.2038553e-01 4.2571964e+01 
-4.3632439e-01 9.6404165e-01 4.2495808e+01 
-1.7531081e-01 8.4539592e-01 4.2506718e+01 
-2.7261066e-01 7.1026409e-01 4.2496017e+01 
-3.0958602e-01 9.1987789e-01 4.2426853e+01 
-3.7859210e-01 8.2613736e-01 4.2421188e+01 
4.6141517e-01 3.2527190e-01 4.2776375e+01 
6.2686495e-02 6.2762415e-01 4.2501175e+01 
-3.3570320e-04 5.2390522e-01 4.2492062e+01 
-5.6779940e-02 7.5462401e-01 4.2422298e+01 
-4.3632373e-01 9.6403772e-01 4.2357380e+01 
-1.5262254e-01 6.1603409e-01 4.2412144e+01 
-1.7177837e-01 8.4521037e-01 4.2345684e+01 
-2.7093092e-01 7.0762289e-01 4.2334549e+01 
-3.0808610e-01 9.2009580e-01 4.2287842e+01 
-3.8275370e-01 8.3137155e-01 4.2275047e+01 
4.9876589e-02 6.4471585e-01 4.2356720e+01 
-1.9539909e-02 5.3318781e-01 4.2347118e+01 
-4.3632311e-01 9.6403396e-01 4.2217781e+01 
2.1959943e-01 4.8236796e-01 4.2385345e+01 
-5.1174615e-02 7.5245124e-01 4.2259373e+01 
1.9034323e-01 4.2346162e-01 4.2378918e+01 
-1.4847966e-01 6.1155808e-01 4.2248856e+01 
4.7536272e-01 3.1546980e-01 4.2535065e+01 
-1.6817927e-01 8.4500539e-01 4.2181026e+01 
-2.6921678e-01 7.0492369e-01 4.2169544e+01 
-3.0656675e-01 9.2030340e-01 4.2147648e+01 
-3.9470181e-01 8.4769493e-01 4.2145920e+01 
7.7868804e-02 6.1763972e-01 4.2175373e+01 
-4.3632248e-01 9.6403021e-01 4.2076988e+01 
1.4390758e-02 5.1145434e-01 4.2165581e+01 
-4.5421973e-02 7.5016522e-01 4.2092751e+01 
-1.4420210e-01 6.0695171e-01 4.2081959e+01 
-3.0502778e-01 9.2049998e-01 4.2006248e+01 
-4.0175444e-01 8.5747409e-01 4.2004128e+01 
-1.6451253e-01 8.4477836e-01 4.2012604e+01 
4.8935395e-01 3.0558801e-01 4.2292507e+01 
-2.6746723e-01 7.0216429e-01 4.2000870e+01 
6.4714879e-02 6.3520777e-01 4.2024277e+01 
-4.3632188e-01 9.6402657e-01 4.1934975e+01 
-5.4755262e-03 5.2092212e-01 4.2014156e+01 
-2.3078828e-01 8.1064087e-01 4.1931458e+01 
2.3550548e-01 4.7116494e-01 4.2073269e+01 
2.0610523e-01 4.1123796e-01 4.2066772e+01 
-3.9517213e-02 7.4775779e-01 4.1922287e+01 
-1.3978374e-01 6.0220873e-01 4.1911320e+01 
-3.0346894e-01 9.2068475e-01 4.1863613e+01 
-3.9432141e-01 8.4618556e-01 4.1861881e+01 
-1.6077711e-01 8.4452641e-01 4.1840263e+01 
-2.6568118e-01 6.9934219e-01 4.1828377e+01 
-4.3632129e-01 9.6402299e-01 4.1791718e+01 
5.0338638e-01 2.9562023e-01 4.2048656e+01 
9.4028555e-02 6.0672593e-01 4.1834507e+01 
3.0205652e-02 4.9819478e-01 4.1824417e+01 
-3.8116732e-01 8.2744831e-01 4.1725647e+01 
-3.0189002e-01 9.2085695e-01 4.1719719e+01 
-3.3455357e-02 7.4522001e-01 4.1747829e+01 
-1.3521814e-01 5.9732240e-01 4.1736786e+01 
-4.3632072e-01 9.6401960e-01 4.1647179e+01 
-1.5697217e-01 8.4424627e-01 4.1663853e+01 
-2.6385748e-01 6.9645494e-01 4.1651920e+01 
8.0488607e-02 6.2478805e-01 4.1676235e+01 
2.6870471e-01 4.4547972e-01 4.1752304e+01 
9.6269641e-03 5.0785345e-01 4.1665993e+01 
2.4764967e-01 3.8646612e-01 4.1743168e+01 
-3.0029076e-01 9.2101562e-01 4.1574532e+01 
-3.9388368e-01 8.4456980e-01 4.1572796e+01 
5.1745731e-01 2.8556010e-01 4.1803486e+01 
-2.7231261e-02 7.4254233e-01 4.1569210e+01 
-1.3049847e-01 5.9228569e-01 4.1558201e+01 
-4.3632016e-01 9.6401632e-01 4.1501339e+01 
-1.5309690e-01 8.4393430e-01 4.1483204e+01 
-2.6199502e-01 6.9349992e-01 4.1471333e+01 
-2.9867104e-01 9.2115986e-01 4.1428024e+01 
-3.9364263e-01 8.4372103e-01 4.1426289e+01 
1.1125199e-01 5.9476525e-01 4.1477348e+01 
4.7217656e-02 4.8404291e-01 4.1467384e+01 
-4.3631962e-01 9.6401310e-01 4.1354160e+01 
-2.0839609e-02 7.3971421e-01 4.1386261e+01 
-1.2561750e-01 5.8709091e-01 4.1375404e+01 
5.3156406e-01 2.7540097e-01 4.1556946e+01 
-1.4915068e-01 8.4358656e-01 4.1298138e+01 
-2.9703063e-01 9.2128879e-01 4.1280167e+01 
-3.9338648e-01 8.4284443e-01 4.1278431e+01 
-2.6009262e-01 6.9047421e-01 4.1286449e+01 
2.9365057e-01 4.2687622e-01 4.1391586e+01 
9.7278498e-02 6.1333776e-01 4.1311302e+01 
2.7470219e-01 3.6807936e-01 4.1382729e+01 
2.5872495e-02 4.9389899e-01 4.1301384e+01 
-4.3631911e-01 9.6401012e-01 4.1205620e+01 
-1.4274905e-02 7.3672432e-01 4.1198803e+01 
-1.2056758e-01 5.8173001e-01 4.1188221e+01 
-2.9536936e-01 9.2140132e-01 4.1130928e+01 
[...]
POINT_DATA 4496
FIELD FieldData 5
DISPLACEMENT 3 4496  float
2.0830397e-01 1.9084355e-01 -1.8415551e-03 
2.0718069e-01 1.8970668e-01 -1.8313349e-03 
2.0834683e-01 1.9094267e-01 -2.4063725e-03 
2.0841634e-01 1.9089174e-01 -1.1792500e-03 
2.0670076e-01 1.8915947e-01 -1.2044776e-03 
2.0665663e-01 1.8923141e-01 -2.3846426e-03 
2.0604958e-01 1.8856190e-01 -1.8210389e-03 
2.0840357e-01 1.9103719e-01 -2.7820612e-03 
2.0850736e-01 1.9097620e-01 -1.1027665e-03 
2.0727015e-01 1.8989249e-01 -2.7963547e-03 
2.0736501e-01 1.8981937e-01 -1.0854681e-03 
2.0556600e-01 1.8801065e-01 -1.1906439e-03 
2.0552120e-01 1.8808365e-01 -2.3885658e-03 
2.0611563e-01 1.8872645e-01 -2.8108917e-03 
2.0846377e-01 1.9111879e-01 -2.9916095e-03 
2.0620202e-01 1.8864165e-01 -1.0678770e-03 
2.0491047e-01 1.8740903e-01 -1.8106605e-03 
2.0857164e-01 1.9105791e-01 -1.2716795e-03 
2.0559469e-01 1.8806884e-01 -1.4860125e-03 
2.0707206e-01 1.8971625e-01 -3.0399200e-03 
2.0716782e-01 1.8964495e-01 -1.3381757e-03 
2.0437771e-01 1.8692772e-01 -2.3924697e-03 
2.0442316e-01 1.8685369e-01 -1.1766487e-03 
2.0493932e-01 1.8753839e-01 -2.8256683e-03 
2.0501770e-01 1.8744236e-01 -1.0499649e-03 
2.0854220e-01 1.9120105e-01 -3.0210945e-03 
2.0556413e-01 1.8819095e-01 -3.0358410e-03 
2.0376326e-01 1.8624794e-01 -1.8001803e-03 
2.0863168e-01 1.9115403e-01 -1.6298887e-03 
2.0565413e-01 1.8810479e-01 -1.2414192e-03 
2.0374051e-01 1.8632758e-01 -2.8406677e-03 
2.0322600e-01 1.8576348e-01 -2.3964120e-03 
2.0327215e-01 1.8568848e-01 -1.1624973e-03 
2.0622964e-01 1.8886338e-01 -3.0299891e-03 
2.0381133e-01 1.8622079e-01 -1.0317505e-03 
2.0437708e-01 1.8699212e-01 -3.0516949e-03 
2.0630452e-01 1.8880534e-01 -1.6756988e-03 
2.0728442e-01 1.8992803e-01 -3.0094660e-03 
2.0445946e-01 1.8689540e-01 -1.2269204e-03 
2.0734948e-01 1.8988448e-01 -1.9033111e-03 
2.0260772e-01 1.8507853e-01 -1.7896366e-03 
2.0863160e-01 1.9129314e-01 -3.0375787e-03 
2.0512530e-01 1.8774888e-01 -3.0530777e-03 
2.0523280e-01 1.8771361e-01 -1.5941737e-03 
2.0869224e-01 1.9126470e-01 -2.1299408e-03 
2.0251837e-01 1.8509322e-01 -2.8558800e-03 
2.0316716e-01 1.8577015e-01 -3.0677486e-03 
2.0206591e-01 1.8459083e-01 -2.4003454e-03 
2.0211272e-01 1.8451479e-01 -1.1481163e-03 
2.0258223e-01 1.8497621e-01 -1.0132027e-03 
2.0324241e-01 1.8566336e-01 -1.2122507e-03 
2.0743673e-01 1.9009569e-01 -3.1473488e-03 
2.0385887e-01 1.8646787e-01 -3.0499403e-03 
2.0747018e-01 1.9006595e-01 -2.5042584e-03 
2.0144375e-01 1.8390052e-01 -1.7789598e-03 
2.0391756e-01 1.8639058e-01 -1.6638848e-03 
2.0559609e-01 1.8823104e-01 -3.1143390e-03 
2.0563470e-01 1.8819311e-01 -2.3345500e-03 
2.0872624e-01 1.9140901e-01 -3.2406556e-03 
2.0875682e-01 1.9139709e-01 -2.8074794e-03 
2.0193356e-01 1.8452428e-01 -3.0840049e-03 
2.0274891e-01 1.8534775e-01 -3.0737408e-03 
2.0127216e-01 1.8383457e-01 -2.8713117e-03 
2.0089725e-01 1.8340953e-01 -2.4043019e-03 
2.0094478e-01 1.8333252e-01 -1.1336005e-03 
2.0200221e-01 1.8440796e-01 -1.1974726e-03 
2.0280533e-01 1.8525766e-01 -1.5793986e-03 
2.0132953e-01 1.8370785e-01 -9.9434680e-04 
2.0027111e-01 1.8271391e-01 -1.7682224e-03 
2.0338805e-01 1.8600003e-01 -3.1346169e-03 
2.0341244e-01 1.8594854e-01 -2.3609046e-03 
2.0067549e-01 1.8325371e-01 -3.1003952e-03 
2.0073804e-01 1.8312840e-01 -1.1824969e-03 
1.9971991e-01 1.8221955e-01 -2.4082230e-03 
1.9976814e-01 1.8214154e-01 -1.1188940e-03 
2.0139523e-01 1.8397848e-01 -3.0699952e-03 
2.0000105e-01 1.8255077e-01 -2.8869149e-03 
2.0143968e-01 1.8388408e-01 -1.6528936e-03 
2.0005250e-01 1.8241489e-01 -9.7515993e-04 
2.0880984e-01 1.9155723e-01 -3.8841427e-03 
1.9908969e-01 1.8151842e-01 -1.7574292e-03 
2.0671600e-01 1.8944138e-01 -3.9017894e-03 
2.0024090e-01 1.8281364e-01 -3.0950035e-03 
2.0028415e-01 1.8270718e-01 -1.5651745e-03 
1.9939210e-01 1.8195757e-01 -3.1169411e-03 
1.9858593e-01 1.8094832e-01 -1.1383333e-03 
1.9853359e-01 1.8102051e-01 -2.4122214e-03 
1.9944918e-01 1.8182391e-01 -1.1674254e-03 
1.9870415e-01 1.8124105e-01 -2.9026754e-03 
1.9875035e-01 1.8109660e-01 -9.5555652e-04 
2.0461276e-01 1.8731603e-01 -3.9194217e-03 
2.0090671e-01 1.8349272e-01 -3.1542340e-03 
1.9789928e-01 1.8031396e-01 -1.7465646e-03 
2.0075120e-01 1.8325993e-01 -2.3844810e-03 
1.9883224e-01 1.8138877e-01 -3.0900210e-03 
1.9808254e-01 1.8063505e-01 -3.1335840e-03 
1.9733843e-01 1.7981255e-01 -2.4161001e-03 
1.9738802e-01 1.7973255e-01 -1.0889914e-03 
1.9886456e-01 1.8127961e-01 -1.6428488e-03 
1.9813465e-01 1.8049359e-01 -1.1521340e-03 
1.9738062e-01 1.7990440e-01 -2.9185854e-03 
2.0249991e-01 1.8518072e-01 -3.9369524e-03 
1.9742209e-01 1.7975201e-01 -9.3569793e-04 
1.9669990e-01 1.7910030e-01 -1.7354925e-03 
1.9763045e-01 1.8017614e-01 -3.1161101e-03 
1.9766276e-01 1.8005578e-01 -1.5516423e-03 
1.9613397e-01 1.7859530e-01 -2.4200464e-03 
1.9618438e-01 1.7851442e-01 -1.0738532e-03 
1.9674587e-01 1.7928520e-01 -3.1503239e-03 
1.9679376e-01 1.7913669e-01 -1.1368048e-03 
1.9826694e-01 1.8082529e-01 -3.1737832e-03 
1.9602947e-01 1.7853993e-01 -2.9345993e-03 
1.9825219e-01 1.8073398e-01 -2.3924240e-03 
1.9606702e-01 1.7838047e-01 -9.1549708e-04 
2.0037737e-01 1.8303579e-01 -3.9544757e-03 
1.9549115e-01 1.7787760e-01 -1.7244059e-03 
1.9508258e-01 1.7739542e-01 -1.0171774e-03 
1.9492027e-01 1.7736892e-01 -2.4238518e-03 
1.9616297e-01 1.7869189e-01 -3.1098265e-03 
1.9618550e-01 1.7857061e-01 -1.6339694e-03 
1.9538110e-01 1.7790718e-01 -3.1671352e-03 
1.9542536e-01 1.7775223e-01 -1.1212083e-03 
1.9464993e-01 1.7714702e-01 -2.9507326e-03 
1.9427307e-01 1.7664543e-01 -1.7131536e-03 
1.9468395e-01 1.7698066e-01 -8.9484249e-04 
1.9824493e-01 1.8088083e-01 -3.9716777e-03 
1.9491036e-01 1.7742820e-01 -3.1368707e-03 
1.9381581e-01 1.7611219e-01 -9.8536292e-04 
1.9369709e-01 1.7613296e-01 -2.4275295e-03 
1.9493414e-01 1.7729671e-01 -1.5389435e-03 
1.9563538e-01 1.7816682e-01 -3.1960034e-03 
1.9398747e-01 1.7649996e-01 -3.1840648e-03 
1.9562188e-01 1.7807895e-01 -2.4331270e-03 
1.9402874e-01 1.7633934e-01 -1.1057293e-03 
1.9304544e-01 1.7540367e-01 -1.7016421e-03 
1.9324070e-01 1.7572422e-01 -2.9670657e-03 
1.9327211e-01 1.7555214e-01 -8.7392097e-04 
1.9246408e-01 1.7488739e-01 -2.4312844e-03 
1.9250168e-01 1.7478266e-01 -9.6641172e-04 
1.9610286e-01 1.7871659e-01 -3.9885752e-03 
1.9337988e-01 1.7588043e-01 -3.1291461e-03 
1.9339520e-01 1.7574999e-01 -1.6263265e-03 
1.9256374e-01 1.7506258e-01 -3.2007999e-03 
1.9180797e-01 1.7415239e-01 -1.6901757e-03 
1.9260268e-01 1.7489703e-01 -1.0899235e-03 
1.9180095e-01 1.7427082e-01 -2.9833403e-03 
1.9183043e-01 1.7409371e-01 -8.5260818e-04 
1.9122142e-01 1.7363219e-01 -2.4349105e-03 
1.9119078e-01 1.7345841e-01 -9.6495682e-04 
1.9207281e-01 1.7456199e-01 -3.1569062e-03 
1.9209097e-01 1.7442267e-01 -1.5271736e-03 
1.9056071e-01 1.7289148e-01 -1.6785940e-03 
1.9246902e-01 1.7496771e-01 -3.2117167e-03 
1.9110894e-01 1.7359407e-01 -3.2174780e-03 
1.9246605e-01 1.7488785e-01 -2.4166531e-03 
1.9114633e-01 1.7342448e-01 -1.0740680e-03 
1.9395021e-01 1.7654169e-01 -4.0050158e-03 
1.9032952e-01 1.7278570e-01 -2.9996440e-03 
1.9035780e-01 1.7260434e-01 -8.3093345e-04 
1.8996887e-01 1.7236730e-01 -2.4383948e-03 
1.9002280e-01 1.7228188e-01 -9.9518511e-04 
1.9047496e-01 1.7294668e-01 -3.1478177e-03 
1.8930344e-01 1.7162050e-01 -1.6669926e-03 
1.9048586e-01 1.7281023e-01 -1.6203553e-03 
1.8962196e-01 1.7209335e-01 -3.2340880e-03 
1.8965876e-01 1.7192048e-01 -1.0579285e-03 
1.8870585e-01 1.7109193e-01 -2.4421609e-03 
1.8874785e-01 1.7099588e-01 -1.0092742e-03 
1.8882526e-01 1.7126772e-01 -3.0158949e-03 
1.9178753e-01 1.7435692e-01 -4.0210825e-03 
1.8885347e-01 1.7108324e-01 -8.0869801e-04 
1.8910959e-01 1.7156994e-01 -3.1760628e-03 
1.8803555e-01 1.7033924e-01 -1.6554190e-03 
1.8912500e-01 1.7142595e-01 -1.5166628e-03 
1.8813440e-01 1.7048262e-01 -2.1088861e-03 
1.8968789e-01 1.7215905e-01 -3.2274108e-03 
1.8968494e-01 1.7207874e-01 -2.4228410e-03 
1.8810165e-01 1.7055942e-01 -3.2506166e-03 
1.8813860e-01 1.7038418e-01 -1.0416504e-03 
1.8743247e-01 1.6980642e-01 -2.4457250e-03 
1.8748778e-01 1.6971923e-01 -9.6279843e-04 
1.8728700e-01 1.6971597e-01 -3.0323029e-03 
1.8731594e-01 1.6952865e-01 -7.8597153e-04 
1.8675722e-01 1.6904747e-01 -1.6434925e-03 
1.8961507e-01 1.7216305e-01 -4.0367632e-03 
1.8743923e-01 1.6988207e-01 -3.1655631e-03 
1.8744896e-01 1.6974324e-01 -1.6160513e-03 
1.8628861e-01 1.6850264e-01 -9.0053189e-04 
1.8614867e-01 1.6851059e-01 -2.4489581e-03 
1.8654653e-01 1.6899054e-01 -3.2670177e-03 
1.8658453e-01 1.6881388e-01 -1.0251263e-03 
1.8546832e-01 1.6774519e-01 -1.6312404e-03 
1.8571347e-01 1.6812870e-01 -3.0485778e-03 
1.8574388e-01 1.6793989e-01 -7.6312799e-04 
1.8601114e-01 1.6844273e-01 -3.1940055e-03 
1.8684238e-01 1.6928887e-01 -3.2663280e-03 
1.8602690e-01 1.6829759e-01 -1.5074194e-03 
1.8681443e-01 1.6919170e-01 -2.5455968e-03 
1.8485390e-01 1.6720411e-01 -2.4522115e-03 
1.8491089e-01 1.6711511e-01 -9.2932244e-04 
1.8743323e-01 1.6996089e-01 -4.0518465e-03 
1.8495558e-01 1.6738585e-01 -3.2831072e-03 
1.8499574e-01 1.6720895e-01 -1.0089118e-03 
1.8416873e-01 1.6643280e-01 -1.6190065e-03 
1.8410325e-01 1.6650510e-01 -3.0645160e-03 
1.8413629e-01 1.6631587e-01 -7.3997123e-04 
1.8354857e-01 1.6588715e-01 -2.4551996e-03 
1.8360622e-01 1.6579768e-01 -9.1256609e-04 
1.8426278e-01 1.6667689e-01 -3.1817632e-03 
1.8427511e-01 1.6653992e-01 -1.6135320e-03 
1.8285808e-01 1.6510993e-01 -1.6069495e-03 
1.8332736e-01 1.6574430e-01 -3.2987355e-03 
1.8337062e-01 1.6556804e-01 -9.9213619e-04 
1.8524019e-01 1.6774754e-01 -4.0658964e-03 
1.8245521e-01 1.6484390e-01 -3.0803182e-03 
1.8223208e-01 1.6455975e-01 -2.4583119e-03 
1.8229012e-01 1.6446914e-01 -8.9537544e-04 
1.8249179e-01 1.6465507e-01 -7.1571534e-04 
1.8363978e-01 1.6605863e-01 -3.2921545e-03 
1.8276733e-01 1.6517039e-01 -3.2101914e-03 
1.8361376e-01 1.6596609e-01 -2.5935995e-03 
1.8278785e-01 1.6502883e-01 -1.4996049e-03 
1.8153626e-01 1.6377555e-01 -1.5945842e-03 
1.8166079e-01 1.6406417e-01 -3.3143321e-03 
1.8170765e-01 1.6388974e-01 -9.7525452e-04 
1.8090408e-01 1.6322048e-01 -2.4613587e-03 
1.8096328e-01 1.6312937e-01 -8.7824691e-04 
1.8076771e-01 1.6314326e-01 -3.0960140e-03 
1.8080905e-01 1.6295631e-01 -6.9152319e-04 
1.8303725e-01 1.6552532e-01 -4.0793847e-03 
1.8020287e-01 1.6243018e-01 -1.5823032e-03 
1.8093525e-01 1.6332108e-01 -3.1964472e-03 
1.8095359e-01 1.6318987e-01 -1.6131944e-03 
1.7956471e-01 1.6187060e-01 -2.4643121e-03 
1.7962435e-01 1.6177833e-01 -8.6083059e-04 
1.7995360e-01 1.6234401e-01 -3.3290540e-03 
1.8000609e-01 1.6217279e-01 -9.5854898e-04 
1.7885803e-01 1.6107346e-01 -1.5694969e-03 
1.7903952e-01 1.6140214e-01 -3.1111978e-03 
1.7908627e-01 1.6121823e-01 -6.6652661e-04 
1.8028389e-01 1.6267584e-01 -3.3195976e-03 
1.8026391e-01 1.6259223e-01 -2.6471599e-03 
1.7921080e-01 1.6158286e-01 -3.2022505e-03 
1.8082450e-01 1.6329429e-01 -4.0922142e-03 
1.7821375e-01 1.6050898e-01 -2.4665534e-03 
1.7827430e-01 1.6041656e-01 -8.4364228e-04 
1.7923398e-01 1.6145702e-01 -1.6138017e-03 
1.7820542e-01 1.6058277e-01 -3.3434890e-03 
1.7826365e-01 1.6041578e-01 -9.4146485e-04 
1.7750150e-01 1.5970606e-01 -1.5569929e-03 
1.7726848e-01 1.5961894e-01 -3.1261733e-03 
1.7732295e-01 1.5943949e-01 -6.4117636e-04 
1.7685118e-01 1.5913709e-01 -2.4688682e-03 
1.7691201e-01 1.5904328e-01 -8.2593068e-04 
1.7744450e-01 1.5980297e-01 -3.2079483e-03 
1.7677511e-01 1.5896168e-01 -1.4270737e-03 
1.7747368e-01 1.5968361e-01 -1.6153569e-03 
1.7613320e-01 1.5832697e-01 -1.5438740e-03 
1.7859982e-01 1.6105109e-01 -4.1037374e-03 
1.7752388e-01 1.5989232e-01 -3.3099281e-03 
1.7641370e-01 1.5877888e-01 -3.3563715e-03 
1.7753491e-01 1.5983202e-01 -2.5444943e-03 
1.7647973e-01 1.5861788e-01 -9.2430448e-04 
1.7547639e-01 1.5775265e-01 -2.4706158e-03 
1.7553806e-01 1.5765877e-01 -8.0805784e-04 
1.7545451e-01 1.5779305e-01 -3.1395892e-03 
1.7551637e-01 1.5761901e-01 -6.1626168e-04 
1.7475292e-01 1.5693675e-01 -1.5312498e-03 
1.7563444e-01 1.5797998e-01 -3.2130748e-03 
1.7567058e-01 1.5786846e-01 -1.6173066e-03 
1.7457770e-01 1.5693109e-01 -3.3692899e-03 
1.7408985e-01 1.5635698e-01 -2.4726780e-03 
1.7415205e-01 1.5626241e-01 -7.8998029e-04 
1.7465207e-01 1.5677720e-01 -9.0674288e-04 
1.7636479e-01 1.5880013e-01 -4.1150665e-03 
1.7359436e-01 1.5592180e-01 -3.1538240e-03 
1.7336021e-01 1.5553419e-01 -1.5181912e-03 
1.7509319e-01 1.5740167e-01 -2.8504068e-03 
1.7505427e-01 1.5741687e-01 -3.4369803e-03 
1.7366590e-01 1.5575515e-01 -5.8942626e-04 
1.7377888e-01 1.5611224e-01 -3.2170562e-03 
1.7382288e-01 1.5600917e-01 -1.6202338e-03 
1.7269035e-01 1.5494919e-01 -2.4746889e-03 
1.7275319e-01 1.5485394e-01 -7.7176455e-04 
1.7269480e-01 1.5503708e-01 -3.3813508e-03 
1.7277950e-01 1.5489188e-01 -8.8931859e-04 
1.7195438e-01 1.5411918e-01 -1.5049563e-03 
1.7411976e-01 1.5653947e-01 -4.1241632e-03 
1.7168604e-01 1.5400326e-01 -3.1674316e-03 
1.7176911e-01 1.5384546e-01 -5.6198688e-04 
1.7127897e-01 1.5353039e-01 -2.4751006e-03 
1.7134218e-01 1.5343404e-01 -7.5398927e-04 
1.7284332e-01 1.5513770e-01 -2.8542692e-03 
1.7280529e-01 1.5515375e-01 -3.4453247e-03 
1.7184590e-01 1.5416779e-01 -3.2204280e-03 
1.7188297e-01 1.5405777e-01 -1.6120378e-03 
1.7091984e-01 1.5309587e-01 -1.6859787e-03 
1.7053822e-01 1.5269475e-01 -1.4912075e-03 
1.7077917e-01 1.5311150e-01 -3.3929562e-03 
1.7088516e-01 1.5298493e-01 -8.5847150e-04 
1.6986728e-01 1.5211025e-01 -2.4623824e-03 
1.6993104e-01 1.5201533e-01 -7.4093486e-04 
1.6976286e-01 1.5207104e-01 -3.1784356e-03 
1.7186455e-01 1.5427029e-01 -4.1321265e-03 
1.6987775e-01 1.5194319e-01 -5.3597667e-04 
1.6913286e-01 1.5128224e-01 -1.4784338e-03 
1.6987859e-01 1.5219067e-01 -3.2287557e-03 
1.6996977e-01 1.5213002e-01 -1.5570171e-03 
1.7058948e-01 1.5287185e-01 -2.8614346e-03 
1.7055240e-01 1.5288858e-01 -3.4538312e-03 
1.6904405e-01 1.5120991e-01 -1.6690037e-03 
1.6846673e-01 1.5070271e-01 -2.4493376e-03 
1.6887167e-01 1.5119527e-01 -3.4042364e-03 
1.6852985e-01 1.5060717e-01 -7.2773569e-04 
1.6900888e-01 1.5109760e-01 -8.2137482e-04 
1.6773827e-01 1.4988051e-01 -1.4647733e-03 
1.6787477e-01 1.5017533e-01 -3.1883295e-03 
1.6801770e-01 1.5007399e-01 -5.1072525e-04 
1.6960970e-01 1.5200312e-01 -4.1388171e-03 
1.6798753e-01 1.5029223e-01 -3.2403569e-03 
1.6810937e-01 1.5025647e-01 -1.4998078e-03 
1.6707571e-01 1.4930502e-01 -2.4366083e-03 
1.6713917e-01 1.4921068e-01 -7.1483839e-04 
1.6823636e-01 1.5055040e-01 -3.3324943e-03 
1.6829318e-01 1.5053529e-01 -2.5337595e-03 
1.6699859e-01 1.4931555e-01 -3.4144495e-03 
1.6716276e-01 1.4924115e-01 -7.8514311e-04 
1.6672681e-01 1.4888212e-01 -1.6460031e-03 
1.6635378e-01 1.4849056e-01 -1.4517647e-03 
1.6618788e-01 1.4823602e-01 -4.8543842e-04 
1.6601938e-01 1.4831384e-01 -3.1969887e-03 
1.6569573e-01 1.4791897e-01 -2.4230820e-03 
1.6575906e-01 1.4782573e-01 -7.0230657e-04 
1.6627833e-01 1.4841445e-01 -1.4441346e-03 
1.6612937e-01 1.4842837e-01 -3.2520795e-03 
1.6735986e-01 1.4974399e-01 -4.1449913e-03 
1.6497932e-01 1.4711152e-01 -1.4392578e-03 
1.6534626e-01 1.4741601e-01 -7.4988935e-04 
1.6515769e-01 1.4746991e-01 -3.4237038e-03 
1.6605762e-01 1.4837606e-01 -3.4693342e-03 
1.6590326e-01 1.4814100e-01 -2.5820390e-03 
1.6432558e-01 1.4654416e-01 -2.4095252e-03 
1.6436084e-01 1.4642438e-01 -7.0422480e-04 
1.6438717e-01 1.4642781e-01 -4.5919011e-04 
1.6419673e-01 1.4648688e-01 -3.2060142e-03 
1.6382165e-01 1.4597198e-01 -1.6736345e-03 
1.6361463e-01 1.4574219e-01 -1.4258175e-03 
1.6447559e-01 1.4660200e-01 -1.3907540e-03 
1.6410027e-01 1.4638969e-01 -3.2156114e-03 
1.6355756e-01 1.4562109e-01 -7.1677379e-04 
1.6334918e-01 1.4565688e-01 -3.4316825e-03 
1.6296460e-01 1.4517856e-01 -2.3951756e-03 
1.6511697e-01 1.4749457e-01 -4.1505010e-03 
1.6302742e-01 1.4508632e-01 -6.7670690e-04 
1.6283605e-01 1.4497650e-01 -1.5844271e-03 
1.6385233e-01 1.4608434e-01 -2.5762904e-03 
1.6225971e-01 1.4438418e-01 -1.4130418e-03 
1.6261312e-01 1.4465009e-01 -4.3656421e-04 
1.6240510e-01 1.4469135e-01 -3.2119588e-03 
1.6381760e-01 1.4613079e-01 -3.4745648e-03 
1.6270159e-01 1.4482076e-01 -1.3378345e-03 
1.6250989e-01 1.4480077e-01 -3.2720335e-03 
1.6161361e-01 1.4382447e-01 -2.3816170e-03 
1.6167659e-01 1.4373279e-01 -6.6416938e-04 
1.6179734e-01 1.4385602e-01 -6.8313407e-04 
1.6157150e-01 1.4387622e-01 -3.4380115e-03 
1.6115378e-01 1.4327112e-01 -1.3474219e-03 
1.6091388e-01 1.4303622e-01 -1.4003058e-03 
1.6287716e-01 1.4524983e-01 -4.1539045e-03 
1.6086745e-01 1.4290096e-01 -4.1174935e-04 
1.6064337e-01 1.4292787e-01 -3.2180117e-03 
1.6180480e-01 1.4400980e-01 -2.3200300e-03 
1.6163445e-01 1.4392355e-01 -3.2619943e-03 
1.6027158e-01 1.4248049e-01 -2.3673300e-03 
1.6095486e-01 1.4306705e-01 -1.2868954e-03 
1.6020574e-01 1.4225286e-01 -5.7134841e-04 
1.6074593e-01 1.4303534e-01 -3.2819042e-03 
1.5957677e-01 1.4169769e-01 -1.3881467e-03 
1.6006346e-01 1.4211802e-01 -6.4971839e-04 
1.5982328e-01 1.4212689e-01 -3.4434092e-03 
1.5900192e-01 1.4105548e-01 -6.3990569e-04 
1.5891504e-01 1.4111368e-01 -2.2583171e-03 
1.5914811e-01 1.4117928e-01 -3.8792702e-04 
1.5890987e-01 1.4119422e-01 -3.2229659e-03 
1.6064174e-01 1.4301026e-01 -4.1550952e-03 
1.5858425e-01 1.4074346e-01 -1.8210902e-03 
1.5923457e-01 1.4134258e-01 -1.2375743e-03 
1.5901040e-01 1.4129929e-01 -3.2911305e-03 
1.5824936e-01 1.4036991e-01 -1.3763714e-03 
1.5835555e-01 1.4040926e-01 -6.1898411e-04 
1.5935099e-01 1.4165747e-01 -3.4801075e-03 
1.5938371e-01 1.4163762e-01 -2.8897014e-03 
1.5786585e-01 1.3991186e-01 -5.4502190e-04 
1.5810268e-01 1.4040530e-01 -3.4472586e-03 
1.5773919e-01 1.3995618e-01 -2.4606353e-03 
1.5883954e-01 1.4100650e-01 -1.9111572e-03 
1.5857224e-01 1.4085340e-01 -3.2062714e-03 
1.5745361e-01 1.3948478e-01 -3.6547589e-04 
1.5720645e-01 1.3949053e-01 -3.2237424e-03 
1.5693162e-01 1.3905199e-01 -1.3640621e-03 
1.5753968e-01 1.3964403e-01 -1.1896930e-03 
1.5730456e-01 1.3959414e-01 -3.2992857e-03 
1.5841062e-01 1.4077707e-01 -4.1538714e-03 
1.5640874e-01 1.3845296e-01 -5.0114782e-04 
1.5628800e-01 1.3850690e-01 -2.4656339e-03 
1.5667343e-01 1.3872524e-01 -5.8843027e-04 
1.5641148e-01 1.3871576e-01 -3.4508733e-03 
1.5562293e-01 1.3774364e-01 -1.3515640e-03 
1.5712559e-01 1.3943247e-01 -3.4799115e-03 
1.5715715e-01 1.3941221e-01 -2.8910704e-03 
1.5578507e-01 1.3781562e-01 -3.4157088e-04 
1.5552989e-01 1.3781662e-01 -3.2261466e-03 
1.5586999e-01 1.3797219e-01 -1.1430152e-03 
1.5488514e-01 1.3710235e-01 -2.4273726e-03 
1.5544981e-01 1.3774489e-01 -3.3399358e-03 
1.5580478e-01 1.3796914e-01 -1.8492168e-03 
1.5474899e-01 1.3679396e-01 -4.8311451e-04 
1.5501563e-01 1.3706779e-01 -5.5858266e-04 
1.5474752e-01 1.3705353e-01 -3.4521150e-03 
1.5432215e-01 1.3644482e-01 -1.3393975e-03 
1.5618660e-01 1.3855290e-01 -4.1503594e-03 
1.5399423e-01 1.3615118e-01 -1.7294993e-03 
1.5413998e-01 1.3617335e-01 -3.1931163e-04 
1.5481392e-01 1.3709782e-01 -3.1973009e-03 
1.5371862e-01 1.3592021e-01 -2.2190420e-03 
1.5388010e-01 1.3616866e-01 -3.2269601e-03 
1.5376250e-01 1.3581997e-01 -5.9340743e-04 
1.5422425e-01 1.3632621e-01 -1.0974960e-03 
1.5490639e-01 1.3721496e-01 -3.4775222e-03 
1.5493722e-01 1.3719428e-01 -2.8899251e-03 
1.5397412e-01 1.3626869e-01 -3.3123714e-03 
1.5323864e-01 1.3528144e-01 -4.0471676e-04 
1.5303060e-01 1.3515575e-01 -1.3276819e-03 
1.5338157e-01 1.3543607e-01 -5.2825321e-04 
1.5310936e-01 1.3541858e-01 -3.4527879e-03 
1.5266918e-01 1.3473073e-01 -5.9822662e-04 
1.5241216e-01 1.3462199e-01 -2.2755684e-03 
1.5251870e-01 1.3455413e-01 -2.9707071e-04 
1.5225562e-01 1.3454884e-01 -3.2268581e-03 
1.5396754e-01 1.3633648e-01 -4.1460386e-03 
1.5260169e-01 1.3470462e-01 -1.0533232e-03 
1.5174745e-01 1.3387570e-01 -1.3154994e-03 
1.5217702e-01 1.3447946e-01 -3.3485417e-03 
1.5158302e-01 1.3363370e-01 -4.3308956e-04 
1.5253039e-01 1.3470577e-01 -1.8908361e-03 
1.5177055e-01 1.3382801e-01 -5.0000724e-04 
1.5156029e-01 1.3370001e-01 -1.4453960e-03 
1.5121773e-01 1.3344626e-01 -2.4446943e-03 
1.5269201e-01 1.3500531e-01 -3.4743266e-03 
1.5149665e-01 1.3381010e-01 -3.4525525e-03 
1.5272199e-01 1.3498437e-01 -2.8883819e-03 
1.5091978e-01 1.3296048e-01 -2.7640988e-04 
1.5156363e-01 1.3385269e-01 -3.1725736e-03 