# vtk DataFile Version 4.0
vtk output
ASCII
DATASET UNSTRUCTURED_GRID
POINTS 4496 float
-4.3633327e-01 9.6409470e-01 4.4200001e+01 
-4.3633258e-01 9.6409065e-01 4.4074627e+01 
-3.2152572e-01 9.1279918e-01 4.4200001e+01 
-3.8534868e-01 8.4052670e-01 4.4200001e+01 
-3.9589554e-01 8.5545403e-01 4.4010014e+01 
-3.2616228e-01 9.1667932e-01 4.4011734e+01 
-4.3633190e-01 9.6408653e-01 4.3948376e+01 
-2.1293370e-01 8.4677851e-01 4.4200001e+01 
-2.9042658e-01 7.3813015e-01 4.4200001e+01 
-2.1010752e-01 8.4669363e-01 4.4073502e+01 
-2.8908840e-01 7.3604190e-01 4.4072292e+01 
-3.9589015e-01 8.5505831e-01 4.3883316e+01 
-3.2487559e-01 9.1697580e-01 4.3885036e+01 
-2.0722924e-01 8.4660655e-01 4.3944645e+01 
-1.1981077e-01 7.7773046e-01 4.4200001e+01 
-2.8772619e-01 7.3391593e-01 4.3942276e+01 
-4.3633121e-01 9.6408242e-01 4.3821228e+01 
-1.9739023e-01 6.6468561e-01 4.4200001e+01 
-2.9444304e-01 7.8727525e-01 4.3879974e+01 
-8.7554991e-02 7.5255024e-01 4.4042213e+01 
-1.6445170e-01 6.4084798e-01 4.4041008e+01 
-3.2357255e-01 9.1726828e-01 4.3757431e+01 
-3.9587301e-01 8.5463828e-01 4.3755711e+01 
-2.0429766e-01 8.4651643e-01 4.3813354e+01 
-2.8633916e-01 7.3175091e-01 4.3809875e+01 
-2.6899619e-02 6.8901783e-01 4.4200001e+01 
-1.0567340e-01 7.7152997e-01 4.3875790e+01 
-4.3633053e-01 9.6407831e-01 4.3693161e+01 
-8.7133333e-02 5.9509218e-01 4.4200001e+01 
-1.8777622e-01 6.5475601e-01 4.3873402e+01 
-2.0131156e-01 8.4642249e-01 4.3679543e+01 
-3.2225290e-01 9.1755641e-01 4.3628902e+01 
-3.9584404e-01 8.5419410e-01 4.3627178e+01 
-1.0114321e-03 6.6670936e-01 4.3939713e+01 
-2.8492665e-01 7.2954547e-01 4.3675007e+01 
-1.0131179e-01 7.7015632e-01 4.3743176e+01 
-6.0682178e-02 5.7631296e-01 4.3938457e+01 
3.9444737e-02 6.2338209e-01 4.4053139e+01 
-1.8470748e-01 6.5131217e-01 4.3739727e+01 
-7.0938184e-03 5.4737431e-01 4.4052326e+01 
-4.3632981e-01 9.6407413e-01 4.3564159e+01 
7.6947339e-02 5.8804804e-01 4.4200001e+01 
-1.2721874e-02 6.8194175e-01 4.3817982e+01 
-7.7214435e-02 5.8474159e-01 4.3819649e+01 
4.0195532e-02 5.2425718e-01 4.4200001e+01 
-1.9826968e-01 8.4632379e-01 4.3543118e+01 
-9.6842363e-02 7.6872379e-01 4.3607994e+01 
-3.2091641e-01 9.1783977e-01 4.3499420e+01 
-3.9580306e-01 8.5372573e-01 4.3497700e+01 
-2.8348783e-01 7.2729832e-01 4.3537586e+01 
-1.8155001e-01 6.4778340e-01 4.3603539e+01 
1.5678726e-01 5.2239102e-01 4.4060219e+01 
1.0298219e-02 6.6009766e-01 4.3674484e+01 
1.3250886e-01 4.7546524e-01 4.4058990e+01 
-4.3632913e-01 9.6407002e-01 4.3434200e+01 
-5.0139543e-02 5.6696451e-01 4.3671154e+01 
1.3504514e-01 5.4209155e-01 4.3856747e+01 
1.0361936e-01 4.8715758e-01 4.3855240e+01 
2.0846681e-01 4.8028421e-01 4.4200001e+01 
1.9279444e-01 4.4799727e-01 4.4200001e+01 
-9.2261828e-02 7.6722860e-01 4.3470158e+01 
-1.4701239e-03 6.7547697e-01 4.3552124e+01 
-1.9517080e-01 8.4621930e-01 4.3403992e+01 
-3.1956279e-01 9.1811794e-01 4.3368977e+01 
-3.9574999e-01 8.5323322e-01 4.3367252e+01 
-1.7830023e-01 6.4416617e-01 4.3464752e+01 
-6.7131944e-02 5.7555372e-01 4.3547829e+01 
-2.8202194e-01 7.2500783e-01 4.3397518e+01 
-4.3632844e-01 9.6406585e-01 4.3303261e+01 
1.5138821e-01 5.3037512e-01 4.3609200e+01 
1.2119007e-01 4.7490793e-01 4.3606068e+01 
-8.7566733e-02 7.6566672e-01 4.3329563e+01 
-1.7495437e-01 6.4045686e-01 4.3323273e+01 
-3.1819177e-01 9.1839045e-01 4.3237537e+01 
-3.9568463e-01 8.5271639e-01 4.3235813e+01 
2.2269404e-02 6.5294570e-01 4.3398811e+01 
-1.9201367e-01 8.4610778e-01 4.3262066e+01 
-3.8899176e-02 5.5709696e-01 4.3393635e+01 
-2.8052819e-01 7.2267252e-01 4.3254715e+01 
3.7877345e-01 3.8273901e-01 4.4200001e+01 
-4.3632776e-01 9.6406174e-01 4.3171322e+01 
3.9241230e-01 3.7329337e-01 4.3965439e+01 
1.0283732e-02 6.6872352e-01 4.3271511e+01 
-5.6385640e-02 5.6585240e-01 4.3265472e+01 
-8.2753494e-02 7.6403379e-01 4.3186119e+01 
-4.0345609e-01 8.6371827e-01 4.3104889e+01 
-3.1680310e-01 9.1865683e-01 4.3105087e+01 
-1.7150842e-01 6.3665158e-01 4.3179005e+01 
-1.8879703e-01 8.4598809e-01 4.3117241e+01 
-2.7900568e-01 7.2029078e-01 4.3109074e+01 
4.0610775e-01 3.6380205e-01 4.3729839e+01 
1.6776134e-01 5.1882964e-01 4.3331150e+01 
-4.3632707e-01 9.6405768e-01 4.3038357e+01 
1.4031014e-01 4.6124566e-01 4.3307755e+01 
3.4952711e-02 6.4519531e-01 4.3111935e+01 
-7.7818394e-02 7.6232505e-01 4.3039719e+01 
-3.1539652e-01 9.1891652e-01 4.2971603e+01 
-3.9551663e-01 8.5160977e-01 4.2969879e+01 
-2.6899155e-02 5.4666573e-01 4.3105160e+01 
-1.6795819e-01 6.3274628e-01 4.3031849e+01 
-1.8551964e-01 8.4585863e-01 4.2969406e+01 
4.1985780e-01 3.5425979e-01 4.3493168e+01 
-2.7745360e-01 7.1786088e-01 4.2960495e+01 
-4.3632638e-01 9.6405357e-01 4.2904346e+01 
2.2723136e-02 6.6139150e-01 4.2979332e+01 
-4.4916678e-02 5.5559248e-01 4.2971806e+01 
-3.1397179e-01 9.1916907e-01 4.2837063e+01 
-3.9541367e-01 8.5101974e-01 4.2835335e+01 
-7.2757579e-02 7.6053542e-01 4.2890255e+01 
-1.6429928e-01 6.2873662e-01 4.2881699e+01 
1.8463810e-01 5.0694346e-01 4.3035332e+01 
-1.8218029e-01 8.4571803e-01 4.2818455e+01 
1.5503895e-01 4.5003417e-01 4.3027725e+01 
-2.7587104e-01 7.1538109e-01 4.2808868e+01 
4.3366045e-01 3.4466109e-01 4.3255390e+01 
-4.3632573e-01 9.6404958e-01 4.2769268e+01 
-3.8429454e-01 8.3484912e-01 4.2710606e+01 
-3.1252861e-01 9.1941386e-01 4.2701439e+01 
4.8404284e-02 6.3678014e-01 4.2813030e+01 
-1.4070326e-02 5.3562075e-01 4.2804932e+01 
-6.7567028e-02 7.5865942e-01 4.2737610e+01 
-1.6052702e-01 6.2461799e-01 4.2728443e+01 
-1.7877772e-01 8.4556442e-01 4.2664265e+01 
-4.3632504e-01 9.6404558e-01 4.2633099e+01 
-2.7425703e-01 7.1284944e-01 4.2654083e+01 
4.4751364e-01 3.3500037e-01 4.3016472e+01 
3.5901129e-02 6.5341437e-01 4.2674721e+01 
-3.7959340e-01 8.2794034e-01 4.2568317e+01 
-3.1106678e-01 9.1965032e-01 4.2564713e+01 
-3.2659348e-02 5.4472327e-01 4.2665997e+01 
2.0396979e-01 4.9291667e-01 4.2740131e+01 
-6.2242586e-02 7.5669110e-01 4.2581669e+01 
1.7765003e-01 4.3475360e-01 4.2732578e+01 
-1.5663649e-01 6.2038553e-01 4.2571964e+01 
-4.3632439e-01 9.6404165e-01 4.2495808e+01 
-1.7531081e-01 8.4539592e-01 4.2506718e+01 
-2.7261066e-01 7.1026409e-01 4.2496017e+01 
-3.0958602e-01 9.1987789e-01 4.2426853e+01 
-3.7859210e-01 8.2613736e-01 4.2421188e+01 
4.6141517e-01 3.2527190e-01 4.2776375e+01 
6.2686495e-02 6.2762415e-01 4.2501175e+01 
-3.3570320e-04 5.2390522e-01 4.2492062e+01 
-5.6779940e-02 7.5462401e-01 4.2422298e+01 
-4.3632373e-01 9.6403772e-01 4.2357380e+01 
-1.5262254e-01 6.1603409e-01 4.2412144e+01 
-1.7177837e-01 8.4521037e-01 4.2345684e+01 
-2.7093092e-01 7.0762289e-01 4.2334549e+01 
-3.0808610e-01 9.2009580e-01 4.2287842e+01 
-3.8275370e-01 8.3137155e-01 4.2275047e+01 
4.9876589e-02 6.4471585e-01 4.2356720e+01 
-1.9539909e-02 5.3318781e-01 4.2347118e+01 
-4.3632311e-01 9.6403396e-01 4.2217781e+01 
2.1959943e-01 4.8236796e-01 4.2385345e+01 
-5.1174615e-02 7.5245124e-01 4.2259373e+01 
1.9034323e-01 4.2346162e-01 4.2378918e+01 
-1.4847966e-01 6.1155808e-01 4.2248856e+01 
4.7536272e-01 3.1546980e-01 4.2535065e+01 
-1.6817927e-01 8.4500539e-01 4.2181026e+01 
-2.6921678e-01 7.0492369e-01 4.2169544e+01 
-3.0656675e-01 9.2030340e-01 4.2147648e+01 
-3.9470181e-01 8.4769493e-01 4.2145920e+01 
7.7868804e-02 6.1763972e-01 4.2175373e+01 
-4.3632248e-01 9.6403021e-01 4.2076988e+01 
1.4390758e-02 5.1145434e-01 4.2165581e+01 
-4.5421973e-02 7.5016522e-01 4.2092751e+01 
-1.4420210e-01 6.0695171e-01 4.2081959e+01 
-3.0502778e-01 9.2049998e-01 4.2006248e+01 
-4.0175444e-01 8.5747409e-01 4.2004128e+01 
-1.6451253e-01 8.4477836e-01 4.2012604e+01 
4.8935395e-01 3.0558801e-01 4.2292507e+01 
-2.6746723e-01 7.0216429e-01 4.2000870e+01 
6.4714879e-02 6.3520777e-01 4.2024277e+01 
-4.3632188e-01 9.6402657e-01 4.1934975e+01 
-5.4755262e-03 5.2092212e-01 4.2014156e+01 
-2.3078828e-01 8.1064087e-01 4.1931458e+01 
2.3550548e-01 4.7116494e-01 4.2073269e+01 
2.0610523e-01 4.1123796e-01 4.2066772e+01 
-3.9517213e-02 7.4775779e-01 4.1922287e+01 
-1.3978374e-01 6.0220873e-01 4.1911320e+01 
-3.0346894e-01 9.2068475e-01 4.1863613e+01 
-3.9432141e-01 8.4618556e-01 4.1861881e+01 
-1.6077711e-01 8.4452641e-01 4.1840263e+01 
-2.6568118e-01 6.9934219e-01 4.1828377e+01 
-4.3632129e-01 9.6402299e-01 4.1791718e+01 
5.0338638e-01 2.9562023e-01 4.2048656e+01 
9.4028555e-02 6.0672593e-01 4.1834507e+01 
3.0205652e-02 4.9819478e-01 4.1824417e+01 
-3.8116732e-01 8.2744831e-01 4.1725647e+01 
-3.0189002e-01 9.2085695e-01 4.1719719e+01 
-3.3455357e-02 7.4522001e-01 4.1747829e+01 
-1.3521814e-01 5.9732240e-01 4.1736786e+01 
-4.3632072e-01 9.6401960e-01 4.1647179e+01 
-1.5697217e-01 8.4424627e-01 4.1663853e+01 
-2.6385748e-01 6.9645494e-01 4.1651920e+01 
8.0488607e-02 6.2478805e-01 4.1676235e+01 
2.6870471e-01 4.4547972e-01 4.1752304e+01 
9.6269641e-03 5.0785345e-01 4.1665993e+01 
2.4764967e-01 3.8646612e-01 4.1743168e+01 
-3.0029076e-01 9.2101562e-01 4.1574532e+01 
-3.9388368e-01 8.4456980e-01 4.1572796e+01 
5.1745731e-01 2.8556010e-01 4.1803486e+01 
-2.7231261e-02 7.4254233e-01 4.1569210e+01 
-1.3049847e-01 5.9228569e-01 4.1558201e+01 
-4.3632016e-01 9.6401632e-01 4.1501339e+01 
-1.5309690e-01 8.4393430e-01 4.1483204e+01 
-2.6199502e-01 6.9349992e-01 4.1471333e+01 
-2.9867104e-01 9.2115986e-01 4.1428024e+01 
-3.9364263e-01 8.4372103e-01 4.1426289e+01 
1.1125199e-01 5.9476525e-01 4.1477348e+01 
4.7217656e-02 4.8404291e-01 4.1467384e+01 
-4.3631962e-01 9.6401310e-01 4.1354160e+01 
-2.0839609e-02 7.3971421e-01 4.1386261e+01 
-1.2561750e-01 5.8709091e-01 4.1375404e+01 
5.3156406e-01 2.7540097e-01 4.1556946e+01 
-1.4915068e-01 8.4358656e-01 4.1298138e+01 
-2.9703063e-01 9.2128879e-01 4.1280167e+01 
-3.9338648e-01 8.4284443e-01 4.1278431e+01 
-2.6009262e-01 6.9047421e-01 4.1286449e+01 
2.9365057e-01 4.2687622e-01 4.1391586e+01 
9.7278498e-02 6.1333776e-01 4.1311302e+01 
2.7470219e-01 3.6807936e-01 4.1382729e+01 
2.5872495e-02 4.9389899e-01 4.1301384e+01 
-4.3631911e-01 9.6401012e-01 4.1205620e+01 
-1.4274905e-02 7.3672432e-01 4.1198803e+01 
-1.2056758e-01 5.8173001e-01 4.1188221e+01 
-2.9536936e-01 9.2140132e-01 4.1130928e+01 
[...]
POINT_DATA 4496
FIELD FieldData 5
DISPLACEMENT 3 4496  float
6.9351196e-02 6.5094888e-02 -4.6851311e-04 
6.9020048e-02 6.4747714e-02 -4.6758406e-04 
6.9382437e-02 6.5165132e-02 -6.2999921e-04 
6.9427297e-02 6.5126486e-02 -2.6129547e-04 
6.8916298e-02 6.4593904e-02 -2.7334256e-04 
6.8882786e-02 6.4640954e-02 -6.2710029e-04 
6.8686597e-02 6.4398147e-02 -4.6664622e-04 
6.9422811e-02 6.5231666e-02 -7.3431601e-04 
6.9490179e-02 6.5184817e-02 -2.2879511e-04 
6.9088712e-02 6.4883091e-02 -7.4062264e-04 
6.9154121e-02 6.4831987e-02 -2.2561532e-04 
6.8581901e-02 6.4243101e-02 -2.7133137e-04 
6.8547972e-02 6.4290911e-02 -6.3039258e-04 
6.8748400e-02 6.4528003e-02 -7.4703817e-04 
6.9465108e-02 6.5288782e-02 -7.8937487e-04 
6.8811998e-02 6.4472809e-02 -2.2238820e-04 
6.8350799e-02 6.4046115e-02 -4.6569805e-04 
6.9535203e-02 6.5241896e-02 -2.7144101e-04 
6.8614528e-02 6.4295977e-02 -3.5185271e-04 
6.9063745e-02 6.4871609e-02 -8.0379209e-04 
6.9129802e-02 6.4821787e-02 -2.9136529e-04 
6.8210803e-02 6.3938402e-02 -6.3367846e-04 
6.8245143e-02 6.3889831e-02 -2.6929134e-04 
6.8401679e-02 6.4166218e-02 -7.5356517e-04 
6.8463594e-02 6.4107046e-02 -2.1910004e-04 
6.9519572e-02 6.5345876e-02 -7.8945159e-04 
6.8612501e-02 6.4399563e-02 -8.0719526e-04 
6.8012662e-02 6.3691594e-02 -4.6473061e-04 
6.9577813e-02 6.5309495e-02 -3.7025075e-04 
6.8678543e-02 6.4343348e-02 -2.6698559e-04 
6.8048343e-02 6.3797511e-02 -7.6019549e-04 
6.7871235e-02 6.3583367e-02 -6.3700072e-04 
6.7906000e-02 6.3534066e-02 -2.6722526e-04 
6.8845659e-02 6.4640857e-02 -7.9423789e-04 
6.8108700e-02 6.3734509e-02 -2.1576037e-04 
6.8263054e-02 6.4034961e-02 -8.1393600e-04 
6.8898365e-02 6.4601347e-02 -3.8627035e-04 
6.9171898e-02 6.4979903e-02 -7.8209239e-04 
6.8327516e-02 6.3975066e-02 -2.6460056e-04 
6.9216885e-02 6.4949557e-02 -4.4865123e-04 
6.7672066e-02 6.3334584e-02 -4.6376023e-04 
6.9581591e-02 6.5409750e-02 -7.8450085e-04 
6.8514727e-02 6.4296477e-02 -8.0454856e-04 
6.8579331e-02 6.4262174e-02 -3.6503392e-04 
6.9621161e-02 6.5387562e-02 -5.1074696e-04 
6.7688137e-02 6.3421629e-02 -7.6693029e-04 
6.7906894e-02 6.3663326e-02 -8.2077080e-04 
6.7529209e-02 6.3225791e-02 -6.4032333e-04 
6.7564391e-02 6.3175730e-02 -2.6508156e-04 
6.7747138e-02 6.3354954e-02 -2.1236124e-04 
6.7969926e-02 6.3599899e-02 -2.6219606e-04 
6.9252580e-02 6.5071590e-02 -8.1280275e-04 
6.8149045e-02 6.3913129e-02 -8.0389081e-04 
6.9278419e-02 6.5053552e-02 -6.1867869e-04 
6.7329019e-02 6.2974937e-02 -4.6276161e-04 
6.8197869e-02 6.3867472e-02 -3.8632017e-04 
6.8702891e-02 6.4494550e-02 -8.0837915e-04 
6.8732925e-02 6.4471431e-02 -5.7317381e-04 
6.9647759e-02 6.5490596e-02 -8.3388737e-04 
6.9667779e-02 6.5481156e-02 -7.0304016e-04 
6.7543782e-02 6.3284412e-02 -8.2770968e-04 
6.7816414e-02 6.3567013e-02 -8.1442925e-04 
6.7320853e-02 6.3038364e-02 -7.7377510e-04 
6.7184664e-02 6.2865578e-02 -6.4368220e-04 
6.7220293e-02 6.2814809e-02 -2.6292572e-04 
6.7605533e-02 6.3217640e-02 -2.5979808e-04 
6.7866810e-02 6.3515566e-02 -3.6431014e-04 
6.7378618e-02 6.2968157e-02 -2.0891185e-04 
6.6983424e-02 6.2612683e-02 -4.6176711e-04 
6.8055987e-02 6.3818693e-02 -8.1734743e-04 
6.8081982e-02 6.3791879e-02 -5.8388978e-04 
6.7173481e-02 6.2898003e-02 -8.3471480e-04 
6.7234099e-02 6.2828019e-02 -2.5737192e-04 
6.6837601e-02 6.2502749e-02 -6.4703042e-04 
6.6873670e-02 6.2451236e-02 -2.6073572e-04 
6.7425229e-02 6.3156910e-02 -8.1369333e-04 
6.6946246e-02 6.2647432e-02 -7.8070845e-04 
6.7470707e-02 6.3105784e-02 -3.8673024e-04 
6.7002945e-02 6.2573873e-02 -2.0539867e-04 
6.9707468e-02 6.5595083e-02 -1.0140822e-03 
6.6635251e-02 6.2247735e-02 -4.6076850e-04 
6.9093399e-02 6.4953446e-02 -1.0222676e-03 
6.7079388e-02 6.2797047e-02 -8.2470634e-04 
6.7126811e-02 6.2740281e-02 -3.6386281e-04 
6.6795751e-02 6.2503815e-02 -8.4181596e-04 
6.6521354e-02 6.2084336e-02 -2.6970665e-04 
6.6487871e-02 6.2137146e-02 -6.5042515e-04 
6.6855431e-02 6.2430840e-02 -2.5495159e-04 
6.6564061e-02 6.2248614e-02 -7.8774086e-04 
6.6619903e-02 6.2171888e-02 -2.0179404e-04 
6.8476520e-02 6.4308845e-02 -1.0304668e-03 
6.7328371e-02 6.3058361e-02 -8.2664768e-04 
6.6284433e-02 6.1880093e-02 -4.5975880e-04 
6.7302004e-02 6.2977135e-02 -5.9446966e-04 
6.6672318e-02 6.2370211e-02 -8.2362292e-04 
6.6410333e-02 6.2101603e-02 -8.4897946e-04 
6.6135578e-02 6.1768845e-02 -6.5377966e-04 
6.6172495e-02 6.1715875e-02 -2.5620515e-04 
6.6715017e-02 6.2314391e-02 -3.8753991e-04 
6.6469193e-02 6.2025793e-02 -2.5250160e-04 
6.6174023e-02 6.1841581e-02 -7.9485436e-04 
6.7856766e-02 6.3661076e-02 -1.0386676e-03 
6.6229142e-02 6.1761871e-02 -1.9815836e-04 
6.5931022e-02 6.1509617e-02 -4.5869683e-04 
6.6312335e-02 6.1995655e-02 -8.3508343e-04 
6.6357389e-02 6.1934374e-02 -3.6375126e-04 
6.5780543e-02 6.1397716e-02 -6.5719802e-04 
6.5817937e-02 6.1344065e-02 -2.5391122e-04 
6.6016950e-02 6.1691061e-02 -8.5622683e-04 
6.6075213e-02 6.1612669e-02 -2.5007717e-04 
6.6554092e-02 6.2249161e-02 -8.3621731e-04 
6.5775849e-02 6.1426058e-02 -8.0205192e-04 
6.6568911e-02 6.2210444e-02 -6.0038798e-04 
6.5830514e-02 6.1343655e-02 -1.9447455e-04 
6.7234099e-02 6.3010298e-02 -1.0469325e-03 
6.5574810e-02 6.1136436e-02 -4.5763567e-04 
6.5498762e-02 6.1006222e-02 -2.3766734e-04 
6.5422796e-02 6.1023828e-02 -6.6054700e-04 
6.5888233e-02 6.1550952e-02 -8.3363871e-04 
6.5928780e-02 6.1491281e-02 -3.8883489e-04 
6.5615281e-02 6.1271951e-02 -8.6353387e-04 
6.5673120e-02 6.1191153e-02 -2.4760852e-04 
6.5369315e-02 6.1001878e-02 -8.0932811e-04 
6.5215878e-02 6.0760368e-02 -4.5653380e-04 
6.5423623e-02 6.0916789e-02 -1.9069812e-04 
6.6608399e-02 6.2356293e-02 -1.0551095e-03 
6.5513112e-02 6.1160691e-02 -8.4551593e-04 
6.5127783e-02 6.0616098e-02 -2.2992397e-04 
6.5062270e-02 6.0647000e-02 -6.6386187e-04 
6.5556444e-02 6.1095782e-02 -3.6403176e-04 
6.5782838e-02 6.1443374e-02 -8.4637402e-04 
6.5205157e-02 6.0843952e-02 -8.7092869e-04 
6.5798372e-02 6.1406877e-02 -6.1583525e-04 
6.5262735e-02 6.0760990e-02 -2.4524689e-04 
6.4854167e-02 6.0381360e-02 -4.5535975e-04 
6.4954028e-02 6.0568616e-02 -8.1672583e-04 
6.5008231e-02 6.0481198e-02 -1.8687913e-04 
6.4698823e-02 6.0267270e-02 -6.6725799e-04 
6.4741030e-02 6.0210638e-02 -2.2656494e-04 
6.5979779e-02 6.1699372e-02 -1.0632318e-03 
6.5070756e-02 6.0696866e-02 -8.4366160e-04 
6.5109849e-02 6.0634293e-02 -3.9063586e-04 
6.4786159e-02 6.0406782e-02 -8.7828026e-04 
6.4489514e-02 5.9999503e-02 -4.5422543e-04 
6.4843670e-02 6.0321864e-02 -2.4281059e-04 
6.4529739e-02 6.0125995e-02 -8.2414004e-04 
6.4584039e-02 6.0036492e-02 -1.8298534e-04 
6.4332545e-02 5.9884608e-02 -6.7061122e-04 
6.4352818e-02 5.9805062e-02 -2.2902318e-04 
6.4679414e-02 6.0289755e-02 -8.5590489e-04 
6.4721823e-02 6.0222261e-02 -3.6471736e-04 
6.4121991e-02 5.9614707e-02 -4.5305878e-04 
6.4852476e-02 6.0470972e-02 -8.5597229e-04 
6.4358018e-02 5.9960131e-02 -8.8567147e-04 
6.4871237e-02 6.0435962e-02 -6.1583670e-04 
6.4415686e-02 5.9873555e-02 -2.4039199e-04 
6.5348029e-02 6.1039139e-02 -1.0712537e-03 
6.4096108e-02 5.9673700e-02 -8.3162374e-04 
6.4150706e-02 5.9582338e-02 -1.7902603e-04 
6.3963391e-02 5.9499029e-02 -6.7392300e-04 
6.4002976e-02 5.9442017e-02 -2.4162581e-04 
6.4217515e-02 5.9805620e-02 -8.5365435e-04 
6.3751496e-02 5.9226830e-02 -4.5190108e-04 
6.4255930e-02 5.9741180e-02 -3.9310780e-04 
6.3920401e-02 5.9503667e-02 -8.9309941e-04 
6.3978523e-02 5.9415676e-02 -2.3792611e-04 
6.3591048e-02 5.9110194e-02 -6.7735621e-04 
6.3623741e-02 5.9047133e-02 -2.4899666e-04 
6.3652784e-02 5.9211388e-02 -8.3916361e-04 
6.4713173e-02 6.0375717e-02 -1.0792259e-03 
6.3708052e-02 5.9118543e-02 -1.7492409e-04 
6.3808806e-02 5.9380591e-02 -8.6619303e-04 
6.3377768e-02 5.8835786e-02 -4.5076001e-04 
6.3851081e-02 5.9311535e-02 -3.6595936e-04 
6.3459992e-02 5.8948640e-02 -5.6978810e-04 
6.4035840e-02 5.9617866e-02 -8.6482009e-04 
6.4054824e-02 5.9582729e-02 -6.2175491e-04 
6.3472979e-02 5.9037101e-02 -9.0056722e-04 
6.3531741e-02 5.8947966e-02 -2.3545582e-04 
6.3215598e-02 5.8718204e-02 -6.8072259e-04 
6.3256040e-02 5.8659855e-02 -2.3648787e-04 
6.3199393e-02 5.8738809e-02 -8.4678503e-04 
6.3255616e-02 5.8644500e-02 -1.7074685e-04 
6.3000992e-02 5.8441527e-02 -4.4951646e-04 
6.4075314e-02 5.9709411e-02 -1.0871398e-03 
6.3325852e-02 5.8874607e-02 -8.6355489e-04 
6.3364454e-02 5.8809441e-02 -3.9623867e-04 
6.2908918e-02 5.8292873e-02 -2.1846830e-04 
6.2837169e-02 5.8323160e-02 -6.8398652e-04 
6.3015267e-02 5.8559868e-02 -9.0804941e-04 
6.3074939e-02 5.8469888e-02 -2.3296014e-04 
6.2621139e-02 5.8044054e-02 -4.4818365e-04 
6.2735587e-02 5.8255330e-02 -8.5444638e-04 
6.2792867e-02 5.8159973e-02 -1.6656512e-04 
6.2898405e-02 5.8430307e-02 -8.7629852e-04 
6.3204959e-02 5.8751564e-02 -8.7930990e-04 
6.2941380e-02 5.8360811e-02 -3.6776948e-04 
6.3216165e-02 5.8714181e-02 -6.6107837e-04 
6.2455427e-02 5.7924826e-02 -6.8733364e-04 
6.2496863e-02 5.7865184e-02 -2.3102158e-04 
6.3434571e-02 5.9040498e-02 -1.0949241e-03 
6.2546976e-02 5.8071684e-02 -9.1552199e-04 
6.2607855e-02 5.7981256e-02 -2.3058786e-04 
6.2238052e-02 5.7643507e-02 -4.4688053e-04 
6.2260903e-02 5.7760719e-02 -8.6205784e-04 
6.2319595e-02 5.7664692e-02 -1.6234099e-04 
6.2070563e-02 5.7523277e-02 -6.9057156e-04 
6.2112395e-02 5.7463102e-02 -2.2834913e-04 
6.2392734e-02 5.7900779e-02 -8.7321398e-04 
6.2432528e-02 5.7836261e-02 -4.0003384e-04 
6.1851617e-02 5.7239782e-02 -4.4561469e-04 
6.2067661e-02 5.7572231e-02 -9.2289440e-04 
6.2130015e-02 5.7481609e-02 -2.2809752e-04 
6.2790498e-02 5.8368083e-02 -1.1024456e-03 
6.1774991e-02 5.7254627e-02 -8.6966477e-04 
6.1682332e-02 5.7118542e-02 -6.9380604e-04 
6.1724532e-02 5.7057630e-02 -2.2548407e-04 
6.1835434e-02 5.7158146e-02 -1.5784992e-04 
6.2265858e-02 5.7772115e-02 -8.9135545e-04 
6.1945140e-02 5.7435703e-02 -8.8615419e-04 
6.2277433e-02 5.7736922e-02 -6.7962991e-04 
6.1989997e-02 5.7367288e-02 -3.7010282e-04 
6.1461937e-02 5.6832444e-02 -4.4428295e-04 
6.1576989e-02 5.7061024e-02 -9.3031232e-04 
6.1640944e-02 5.6970533e-02 -2.2562650e-04 
6.1290704e-02 5.6710143e-02 -6.9710560e-04 
6.1333451e-02 5.6648716e-02 -2.2268601e-04 
6.1277419e-02 5.6736436e-02 -8.7740325e-04 
6.1339840e-02 5.6640025e-02 -1.5338781e-04 
6.2143210e-02 5.7692695e-02 -1.1099052e-03 
6.1068714e-02 5.6421857e-02 -4.4295541e-04 
6.1414991e-02 5.6880955e-02 -8.8260625e-04 
6.1456900e-02 5.6818333e-02 -4.0472607e-04 
6.0895614e-02 5.6298453e-02 -7.0038193e-04 
6.0938768e-02 5.6236371e-02 -2.1975303e-04 
6.1074290e-02 5.6537461e-02 -9.3759526e-04 
6.1140414e-02 5.6447681e-02 -2.2321020e-04 
6.0672130e-02 5.6007642e-02 -4.4153162e-04 
6.0767699e-02 5.6205846e-02 -8.8494422e-04 
6.0832337e-02 5.6109745e-02 -1.4875496e-04 
6.1281539e-02 5.6746278e-02 -9.0411329e-04 
6.1294589e-02 5.6714628e-02 -7.0005131e-04 
6.0908195e-02 5.6352597e-02 -8.8698458e-04 
6.1492831e-02 5.7014503e-02 -1.1171963e-03 
6.0497124e-02 5.5883188e-02 -7.0347259e-04 
6.0540710e-02 5.5820670e-02 -2.1695657e-04 
6.0951591e-02 5.6291748e-02 -4.0730659e-04 
6.0559385e-02 5.6001402e-02 -9.4476802e-04 
6.0627718e-02 5.5912491e-02 -2.2079407e-04 
6.0271904e-02 5.5590220e-02 -4.4014654e-04 
6.0245179e-02 5.5662271e-02 -8.9256669e-04 
6.0312781e-02 5.5567037e-02 -1.4407824e-04 
6.0095038e-02 5.5464730e-02 -7.0653512e-04 
6.0138952e-02 5.5401433e-02 -2.1392643e-04 
6.0388938e-02 5.5811472e-02 -8.9135458e-04 
6.0131758e-02 5.5431090e-02 -3.8255777e-04 
6.0434178e-02 5.5752769e-02 -4.1029515e-04 
5.9868164e-02 5.5169024e-02 -4.3862837e-04 
6.0838804e-02 5.6332391e-02 -1.1241843e-03 
6.0466394e-02 5.5895515e-02 -9.0655114e-04 
6.0031578e-02 5.5452198e-02 -9.5163641e-04 
6.0488317e-02 5.5867441e-02 -6.7489827e-04 
6.0102660e-02 5.5364862e-02 -2.1835223e-04 
5.9689231e-02 5.5042304e-02 -7.0947316e-04 
5.9733596e-02 5.4978594e-02 -2.1091438e-04 
5.9709977e-02 5.5105645e-02 -8.9980388e-04 
5.9780281e-02 5.5011544e-02 -1.3952798e-04 
5.9460744e-02 5.4744478e-02 -4.3721675e-04 
5.9856731e-02 5.5257156e-02 -8.9563755e-04 
5.9904065e-02 5.5200957e-02 -4.1340472e-04 
5.9490547e-02 5.4889522e-02 -9.5857622e-04 
5.9279945e-02 5.4616444e-02 -7.1249611e-04 
5.9324712e-02 5.4552212e-02 -2.0782604e-04 
5.9564531e-02 5.4804020e-02 -2.1582490e-04 
6.0181219e-02 5.5647619e-02 -1.1311717e-03 
5.9160832e-02 5.4535016e-02 -9.0734073e-04 
5.9049629e-02 5.4316148e-02 -4.3568353e-04 
5.9780348e-02 5.5149373e-02 -7.6635380e-04 
5.9756707e-02 5.5163421e-02 -9.4341999e-04 
5.9234615e-02 5.4442599e-02 -1.3448643e-04 
5.9310954e-02 5.4689135e-02 -8.9958915e-04 
5.9360638e-02 5.4635715e-02 -4.1690547e-04 
5.8866728e-02 5.4186832e-02 -7.1553153e-04 
5.8911882e-02 5.4122098e-02 -2.0469551e-04 
5.8935501e-02 5.4312605e-02 -9.6535351e-04 
5.9012998e-02 5.4229479e-02 -2.1337536e-04 
5.8634516e-02 5.3883985e-02 -4.3410200e-04 
5.9520427e-02 5.4959498e-02 -1.1376013e-03 
5.8597289e-02 5.3949796e-02 -9.1478386e-04 
5.8675084e-02 5.3859536e-02 -1.2932907e-04 
5.8449805e-02 5.3753741e-02 -7.1810582e-04 
5.8495287e-02 5.3688422e-02 -2.0168965e-04 
5.9118111e-02 5.4460380e-02 -7.7102066e-04 
5.9094768e-02 5.4474793e-02 -9.4945898e-04 
5.8741782e-02 5.4097239e-02 -9.0366974e-04 
5.8789309e-02 5.4041382e-02 -4.1735230e-04 
5.8391981e-02 5.3639848e-02 -4.7206777e-04 
5.8216278e-02 5.3448766e-02 -4.3243615e-04 
5.8369778e-02 5.3725142e-02 -9.7226939e-04 
5.8453750e-02 5.3646695e-02 -2.0727517e-04 
5.8032412e-02 5.3319372e-02 -7.1691268e-04 
5.8077890e-02 5.3254552e-02 -2.0024630e-04 
5.8029208e-02 5.3360153e-02 -9.2152652e-04 
5.8856364e-02 5.4268681e-02 -1.1437347e-03 
5.8116846e-02 5.3278618e-02 -1.2449949e-04 
5.7800990e-02 5.3017259e-02 -4.3095628e-04 
5.8159307e-02 5.3492468e-02 -9.1010384e-04 
5.8223411e-02 5.3450190e-02 -4.0441181e-04 
5.8454469e-02 5.3770818e-02 -7.7657209e-04 
5.8431473e-02 5.3785466e-02 -9.5550419e-04 
5.7836805e-02 5.3062595e-02 -4.7045675e-04 
5.7618208e-02 5.2888766e-02 -7.1553263e-04 
5.7805065e-02 5.3139195e-02 -9.7937020e-04 
5.7663415e-02 5.2823924e-02 -1.9865575e-04 
5.7899050e-02 5.3068895e-02 -1.9940772e-04 
5.7388842e-02 5.2588783e-02 -4.2922879e-04 
5.7471190e-02 5.2781418e-02 -9.2791906e-04 
5.7567477e-02 5.2707583e-02 -1.1975593e-04 
5.8191877e-02 5.3577911e-02 -1.1496210e-03 
5.7597931e-02 5.2910570e-02 -9.1756403e-04 
5.7672542e-02 5.2875046e-02 -3.9080915e-04 
5.7206593e-02 5.2461043e-02 -7.1431877e-04 
5.7251800e-02 5.2396663e-02 -1.9712800e-04 
5.7731248e-02 5.3051248e-02 -9.2811737e-04 
5.7766225e-02 5.3035833e-02 -6.8607071e-04 
5.7250246e-02 5.2564062e-02 -9.8611997e-04 
5.7352979e-02 5.2500412e-02 -1.9168000e-04 
5.7151154e-02 5.2350301e-02 -4.6762463e-04 
5.6979403e-02 5.2163795e-02 -4.2765166e-04 
5.7026699e-02 5.2145734e-02 -1.1490592e-04 
5.6922469e-02 5.2212741e-02 -9.3388627e-04 
5.6798086e-02 5.2036703e-02 -7.1283168e-04 
5.6843065e-02 5.1972769e-02 -1.9561853e-04 
5.7130121e-02 5.2309282e-02 -3.7755063e-04 
5.7046153e-02 5.2339025e-02 -9.2502724e-04 
5.7528254e-02 5.2889001e-02 -1.1552756e-03 
5.6572586e-02 5.1741932e-02 -4.2614772e-04 
5.6815244e-02 5.1941253e-02 -1.8412959e-04 
5.6704666e-02 5.1999137e-02 -9.9250872e-04 
5.7106417e-02 5.2410685e-02 -9.6740254e-04 
5.7062577e-02 5.2309033e-02 -7.0372218e-04 
5.6392137e-02 5.1615518e-02 -7.1121124e-04 
5.6427073e-02 5.1542453e-02 -1.9893578e-04 
5.6494255e-02 5.1592749e-02 -1.0977654e-04 
5.6383006e-02 5.1654465e-02 -9.3978219e-04 
5.6282662e-02 5.1453248e-02 -4.8297743e-04 
5.6168560e-02 5.1322769e-02 -4.2438673e-04 
5.6595653e-02 5.1752523e-02 -3.6495327e-04 
5.6463316e-02 5.1731501e-02 -9.1323530e-04 
5.6285415e-02 5.1391140e-02 -1.7709755e-04 
5.6168292e-02 5.1443864e-02 -9.9848199e-04 
5.5988833e-02 5.1197078e-02 -7.0938893e-04 
5.6866016e-02 5.2202482e-02 -1.1607780e-03 
5.6033473e-02 5.1133659e-02 -1.9240056e-04 
5.6014180e-02 5.1168520e-02 -4.5162623e-04 
5.6456633e-02 5.1680852e-02 -7.0519594e-04 
5.5767182e-02 5.0906960e-02 -4.2276448e-04 
5.5969171e-02 5.1048800e-02 -1.0547386e-04 
5.5852350e-02 5.1105294e-02 -9.4485626e-04 
5.6445092e-02 5.1725615e-02 -9.7257545e-04 
5.6069307e-02 5.1204894e-02 -3.5235487e-04 
5.5970203e-02 5.1225688e-02 -9.3886611e-04 
5.5588234e-02 5.0781950e-02 -7.0775923e-04 
5.5632818e-02 5.0718851e-02 -1.9085879e-04 
5.5763625e-02 5.0849777e-02 -1.6985263e-04 
5.5640701e-02 5.0898109e-02 -1.0038801e-03 
5.5499502e-02 5.0622649e-02 -3.8843730e-04 
5.5368308e-02 5.0494093e-02 -4.2116034e-04 
5.6204312e-02 5.1517170e-02 -1.1659347e-03 
5.5452153e-02 5.0513141e-02 -1.0058285e-04 
5.5330154e-02 5.0565623e-02 -9.4975100e-04 
5.5843104e-02 5.1030051e-02 -6.3470163e-04 
5.5768043e-02 5.1012788e-02 -9.2188327e-04 
5.5190139e-02 5.0369713e-02 -7.0587342e-04 
5.5550747e-02 5.0665636e-02 -3.4027116e-04 
5.5206314e-02 5.0272118e-02 -1.6274890e-04 
5.5445474e-02 5.0683580e-02 -9.4561733e-04 
5.4971781e-02 5.0083965e-02 -4.1960090e-04 
5.5249296e-02 5.0316527e-02 -1.6269760e-04 
5.5121455e-02 5.0361745e-02 -1.0089000e-03 
5.4838799e-02 4.9897868e-02 -1.8782186e-04 
5.4785393e-02 4.9945194e-02 -6.7646924e-04 
5.4942567e-02 4.9985696e-02 -9.5933967e-05 
5.4816093e-02 5.0034802e-02 -9.5430139e-04 
5.5543352e-02 5.0832964e-02 -1.1702394e-03 
5.4731209e-02 4.9859341e-02 -5.3491106e-04 
5.5039674e-02 5.0134994e-02 -3.2857861e-04 
5.4928765e-02 5.0150242e-02 -9.5209415e-04 
5.4577850e-02 4.9677037e-02 -4.1812906e-04 
5.4742176e-02 4.9791865e-02 -1.5610045e-04 
5.5124871e-02 5.0359536e-02 -9.8186929e-04 
5.5146143e-02 5.0344132e-02 -8.0275943e-04 
5.4511793e-02 4.9554296e-02 -1.5842744e-04 
5.4610156e-02 4.9833741e-02 -1.0134411e-03 
5.4440979e-02 4.9601931e-02 -7.3731143e-04 
5.4951597e-02 5.0084103e-02 -5.2157126e-04 
5.4844409e-02 5.0055180e-02 -9.1528322e-04 
5.4439809e-02 4.9466316e-02 -9.1591231e-05 
5.4310549e-02 4.9512718e-02 -9.5778296e-04 
5.4186638e-02 4.9272940e-02 -4.1642835e-04 
5.4535739e-02 4.9612228e-02 -3.1711173e-04 
5.4420542e-02 4.9626108e-02 -9.5810526e-04 
5.4882534e-02 5.0149262e-02 -1.1741762e-03 
5.4083239e-02 4.9109980e-02 -1.4621428e-04 
5.4010112e-02 4.9158037e-02 -7.4115378e-04 
5.4242369e-02 4.9274616e-02 -1.4948762e-04 
5.4107171e-02 4.9314935e-02 -1.0178483e-03 
5.3797856e-02 4.8871465e-02 -4.1473782e-04 
5.4465674e-02 4.9678653e-02 -9.8568050e-04 
5.4486480e-02 4.9663205e-02 -8.0686086e-04 
5.3944357e-02 4.8954319e-02 -8.6823406e-05 
5.3812578e-02 4.8999514e-02 -9.6145156e-04 
5.4038741e-02 4.9097218e-02 -3.0604965e-04 
5.3592402e-02 4.8725322e-02 -7.3234044e-04 
5.3859793e-02 4.9050860e-02 -9.7630691e-04 
5.4049984e-02 4.9150676e-02 -5.0822127e-04 
5.3589500e-02 4.8600465e-02 -1.4336797e-04 
5.3749241e-02 4.8765186e-02 -1.4309546e-04 
5.3611938e-02 4.8804246e-02 -1.0216265e-03 
5.3411100e-02 4.8472807e-02 -4.1306322e-04 
5.4223098e-02 4.9467780e-02 -1.1774413e-03 
5.3364936e-02 4.8445981e-02 -5.1573344e-04 
5.3455528e-02 4.8450273e-02 -8.2283579e-05 
5.3732682e-02 4.8907608e-02 -9.1825001e-04 
5.3241242e-02 4.8351359e-02 -6.7337789e-04 
5.3322002e-02 4.8493829e-02 -9.6472236e-04 
5.3280625e-02 4.8290618e-02 -1.8180556e-04 
5.3548563e-02 4.8589926e-02 -2.9518778e-04 
5.3807613e-02 4.8999656e-02 -9.8878378e-04 
5.3828098e-02 4.8984159e-02 -8.1015727e-04 
5.3427108e-02 4.8602633e-02 -9.6919667e-04 
5.3151581e-02 4.8144974e-02 -1.1883058e-04 
5.3026836e-02 4.8076961e-02 -4.1147877e-04 
5.3262912e-02 4.8263337e-02 -1.3649027e-04 
5.3123899e-02 4.8301630e-02 -1.0250865e-03 
5.2953668e-02 4.7954995e-02 -1.8524124e-04 
5.2853711e-02 4.7955971e-02 -6.9201505e-04 
5.2973267e-02 4.7952995e-02 -7.7832374e-05 
5.2838638e-02 4.7996573e-02 -9.6746202e-04 
5.3564396e-02 4.8788264e-02 -1.1804159e-03 
5.3064764e-02 4.8089888e-02 -2.8464865e-04 
5.2644901e-02 4.7683656e-02 -4.0979206e-04 
5.2883178e-02 4.8045509e-02 -9.8583964e-04 
5.2649215e-02 4.7631033e-02 -1.3226643e-04 
5.3079709e-02 4.8154127e-02 -5.2495673e-04 
5.2782856e-02 4.7768421e-02 -1.3031765e-04 
5.2676138e-02 4.7718491e-02 -4.2500588e-04 
5.2501801e-02 4.7604233e-02 -7.4350677e-04 
5.3150356e-02 4.8322409e-02 -9.9179824e-04 
5.2643105e-02 4.7806803e-02 -1.0282439e-03 
5.3170495e-02 4.8306901e-02 -8.1345654e-04 
5.2497186e-02 4.7463238e-02 -7.3729185e-05 
5.2760314e-02 4.7905121e-02 -9.1825455e-04 