# vtk DataFile Version 4.0
vtk output
ASCII
DATASET UNSTRUCTURED_GRID
POINTS 4496 float
-4.3633327e-01 9.6409470e-01 4.4200001e+01 
-4.3633258e-01 9.6409065e-01 4.4074627e+01 
-3.2152572e-01 9.1279918e-01 4.4200001e+01 
-3.8534868e-01 8.4052670e-01 4.4200001e+01 
-3.9589554e-01 8.5545403e-01 4.4010014e+01 
-3.2616228e-01 9.1667932e-01 4.4011734e+01 
-4.3633190e-01 9.6408653e-01 4.3948376e+01 
-2.1293370e-01 8.4677851e-01 4.4200001e+01 
-2.9042658e-01 7.3813015e-01 4.4200001e+01 
-2.1010752e-01 8.4669363e-01 4.4073502e+01 
-2.8908840e-01 7.3604190e-01 4.4072292e+01 
-3.9589015e-01 8.5505831e-01 4.3883316e+01 
-3.2487559e-01 9.1697580e-01 4.3885036e+01 
-2.0722924e-01 8.4660655e-01 4.3944645e+01 
-1.1981077e-01 7.7773046e-01 4.4200001e+01 
-2.8772619e-01 7.3391593e-01 4.3942276e+01 
-4.3633121e-01 9.6408242e-01 4.3821228e+01 
-1.9739023e-01 6.6468561e-01 4.4200001e+01 
-2.9444304e-01 7.8727525e-01 4.3879974e+01 
-8.7554991e-02 7.5255024e-01 4.4042213e+01 
-1.6445170e-01 6.4084798e-01 4.4041008e+01 
-3.2357255e-01 9.1726828e-01 4.3757431e+01 
-3.9587301e-01 8.5463828e-01 4.3755711e+01 
-2.0429766e-01 8.4651643e-01 4.3813354e+01 
-2.8633916e-01 7.3175091e-01 4.3809875e+01 
-2.6899619e-02 6.8901783e-01 4.4200001e+01 
-1.0567340e-01 7.7152997e-01 4.3875790e+01 
-4.3633053e-01 9.6407831e-01 4.3693161e+01 
-8.7133333e-02 5.9509218e-01 4.4200001e+01 
-1.8777622e-01 6.5475601e-01 4.3873402e+01 
-2.0131156e-01 8.4642249e-01 4.3679543e+01 
-3.2225290e-01 9.1755641e-01 4.3628902e+01 
-3.9584404e-01 8.5419410e-01 4.3627178e+01 
-1.0114321e-03 6.6670936e-01 4.3939713e+01 
-2.8492665e-01 7.2954547e-01 4.3675007e+01 
-1.0131179e-01 7.7015632e-01 4.3743176e+01 
-6.0682178e-02 5.7631296e-01 4.3938457e+01 
3.9444737e-02 6.2338209e-01 4.4053139e+01 
-1.8470748e-01 6.5131217e-01 4.3739727e+01 
-7.0938184e-03 5.4737431e-01 4.4052326e+01 
-4.3632981e-01 9.6407413e-01 4.3564159e+01 
7.6947339e-02 5.8804804e-01 4.4200001e+01 
-1.2721874e-02 6.8194175e-01 4.3817982e+01 
-7.7214435e-02 5.8474159e-01 4.3819649e+01 
4.0195532e-02 5.2425718e-01 4.4200001e+01 
-1.9826968e-01 8.4632379e-01 4.3543118e+01 
-9.6842363e-02 7.6872379e-01 4.3607994e+01 
-3.2091641e-01 9.1783977e-01 4.3499420e+01 
-3.9580306e-01 8.5372573e-01 4.3497700e+01 
-2.8348783e-01 7.2729832e-01 4.3537586e+01 
-1.8155001e-01 6.4778340e-01 4.3603539e+01 
1.5678726e-01 5.2239102e-01 4.4060219e+01 
1.0298219e-02 6.6009766e-01 4.3674484e+01 
1.3250886e-01 4.7546524e-01 4.4058990e+01 
-4.3632913e-01 9.6407002e-01 4.3434200e+01 
-5.0139543e-02 5.6696451e-01 4.3671154e+01 
1.3504514e-01 5.4209155e-01 4.3856747e+01 
1.0361936e-01 4.8715758e-01 4.3855240e+01 
2.0846681e-01 4.8028421e-01 4.4200001e+01 
1.9279444e-01 4.4799727e-01 4.4200001e+01 
-9.2261828e-02 7.6722860e-01 4.3470158e+01 
-1.4701239e-03 6.7547697e-01 4.3552124e+01 
-1.9517080e-01 8.4621930e-01 4.3403992e+01 
-3.1956279e-01 9.1811794e-01 4.3368977e+01 
-3.9574999e-01 8.5323322e-01 4.3367252e+01 
-1.7830023e-01 6.4416617e-01 4.3464752e+01 
-6.7131944e-02 5.7555372e-01 4.3547829e+01 
-2.8202194e-01 7.2500783e-01 4.3397518e+01 
-4.3632844e-01 9.6406585e-01 4.3303261e+01 
1.5138821e-01 5.3037512e-01 4.3609200e+01 
1.2119007e-01 4.7490793e-01 4.3606068e+01 
-8.7566733e-02 7.6566672e-01 4.3329563e+01 
-1.7495437e-01 6.4045686e-01 4.3323273e+01 
-3.1819177e-01 9.1839045e-01 4.3237537e+01 
-3.9568463e-01 8.5271639e-01 4.3235813e+01 
2.2269404e-02 6.5294570e-01 4.3398811e+01 
-1.9201367e-01 8.4610778e-01 4.3262066e+01 
-3.8899176e-02 5.5709696e-01 4.3393635e+01 
-2.8052819e-01 7.2267252e-01 4.3254715e+01 
3.7877345e-01 3.8273901e-01 4.4200001e+01 
-4.3632776e-01 9.6406174e-01 4.3171322e+01 
3.9241230e-01 3.7329337e-01 4.3965439e+01 
1.0283732e-02 6.6872352e-01 4.3271511e+01 
-5.6385640e-02 5.6585240e-01 4.3265472e+01 
-8.2753494e-02 7.6403379e-01 4.3186119e+01 
-4.0345609e-01 8.6371827e-01 4.3104889e+01 
-3.1680310e-01 9.1865683e-01 4.3105087e+01 
-1.7150842e-01 6.3665158e-01 4.3179005e+01 
-1.8879703e-01 8.4598809e-01 4.3117241e+01 
-2.7900568e-01 7.2029078e-01 4.3109074e+01 
4.0610775e-01 3.6380205e-01 4.3729839e+01 
1.6776134e-01 5.1882964e-01 4.3331150e+01 
-4.3632707e-01 9.6405768e-01 4.3038357e+01 
1.4031014e-01 4.6124566e-01 4.3307755e+01 
3.4952711e-02 6.4519531e-01 4.3111935e+01 
-7.7818394e-02 7.6232505e-01 4.3039719e+01 
-3.1539652e-01 9.1891652e-01 4.2971603e+01 
-3.9551663e-01 8.5160977e-01 4.2969879e+01 
-2.6899155e-02 5.4666573e-01 4.3105160e+01 
-1.6795819e-01 6.3274628e-01 4.3031849e+01 
-1.8551964e-01 8.4585863e-01 4.2969406e+01 
4.1985780e-01 3.5425979e-01 4.3493168e+01 
-2.7745360e-01 7.1786088e-01 4.2960495e+01 
-4.3632638e-01 9.6405357e-01 4.2904346e+01 
2.2723136e-02 6.6139150e-01 4.2979332e+01 
-4.4916678e-02 5.5559248e-01 4.2971806e+01 
-3.1397179e-01 9.1916907e-01 4.2837063e+01 
-3.9541367e-01 8.5101974e-01 4.2835335e+01 
-7.2757579e-02 7.6053542e-01 4.2890255e+01 
-1.6429928e-01 6.2873662e-01 4.2881699e+01 
1.8463810e-01 5.0694346e-01 4.3035332e+01 
-1.8218029e-01 8.4571803e-01 4.2818455e+01 
1.5503895e-01 4.5003417e-01 4.3027725e+01 
-2.7587104e-01 7.1538109e-01 4.2808868e+01 
4.3366045e-01 3.4466109e-01 4.3255390e+01 
-4.3632573e-01 9.6404958e-01 4.2769268e+01 
-3.8429454e-01 8.3484912e-01 4.2710606e+01 
-3.1252861e-01 9.1941386e-01 4.2701439e+01 
4.8404284e-02 6.3678014e-01 4.2813030e+01 
-1.4070326e-02 5.3562075e-01 4.2804932e+01 
-6.7567028e-02 7.5865942e-01 4.2737610e+01 
-1.6052702e-01 6.2461799e-01 4.2728443e+01 
-1.7877772e-01 8.4556442e-01 4.2664265e+01 
-4.3632504e-01 9.6404558e-01 4.2633099e+01 
-2.7425703e-01 7.1284944e-01 4.2654083e+01 
4.4751364e-01 3.3500037e-01 4.3016472e+01 
3.5901129e-02 6.5341437e-01 4.2674721e+01 
-3.7959340e-01 8.2794034e-01 4.2568317e+01 
-3.1106678e-01 9.1965032e-01 4.2564713e+01 
-3.2659348e-02 5.4472327e-01 4.2665997e+01 
2.0396979e-01 4.9291667e-01 4.2740131e+01 
-6.2242586e-02 7.5669110e-01 4.2581669e+01 
1.7765003e-01 4.3475360e-01 4.2732578e+01 
-1.5663649e-01 6.2038553e-01 4.2571964e+01 
-4.3632439e-01 9.6404165e-01 4.2495808e+01 
-1.7531081e-01 8.4539592e-01 4.2506718e+01 
-2.7261066e-01 7.1026409e-01 4.2496017e+01 
-3.0958602e-01 9.1987789e-01 4.2426853e+01 
-3.7859210e-01 8.2613736e-01 4.2421188e+01 
4.6141517e-01 3.2527190e-01 4.2776375e+01 
6.2686495e-02 6.2762415e-01 4.2501175e+01 
-3.3570320e-04 5.2390522e-01 4.2492062e+01 
-5.6779940e-02 7.5462401e-01 4.2422298e+01 
-4.3632373e-01 9.6403772e-01 4.2357380e+01 
-1.5262254e-01 6.1603409e-01 4.2412144e+01 
-1.7177837e-01 8.4521037e-01 4.2345684e+01 
-2.7093092e-01 7.0762289e-01 4.2334549e+01 
-3.0808610e-01 9.2009580e-01 4.2287842e+01 
-3.8275370e-01 8.3137155e-01 4.2275047e+01 
4.9876589e-02 6.4471585e-01 4.2356720e+01 
-1.9539909e-02 5.3318781e-01 4.2347118e+01 
-4.3632311e-01 9.6403396e-01 4.2217781e+01 
2.1959943e-01 4.8236796e-01 4.2385345e+01 
-5.1174615e-02 7.5245124e-01 4.2259373e+01 
1.9034323e-01 4.2346162e-01 4.2378918e+01 
-1.4847966e-01 6.1155808e-01 4.2248856e+01 
4.7536272e-01 3.1546980e-01 4.2535065e+01 
-1.6817927e-01 8.4500539e-01 4.2181026e+01 
-2.6921678e-01 7.0492369e-01 4.2169544e+01 
-3.0656675e-01 9.2030340e-01 4.2147648e+01 
-3.9470181e-01 8.4769493e-01 4.2145920e+01 
7.7868804e-02 6.1763972e-01 4.2175373e+01 
-4.3632248e-01 9.6403021e-01 4.2076988e+01 
1.4390758e-02 5.1145434e-01 4.2165581e+01 
-4.5421973e-02 7.5016522e-01 4.2092751e+01 
-1.4420210e-01 6.0695171e-01 4.2081959e+01 
-3.0502778e-01 9.2049998e-01 4.2006248e+01 
-4.0175444e-01 8.5747409e-01 4.2004128e+01 
-1.6451253e-01 8.4477836e-01 4.2012604e+01 
4.8935395e-01 3.0558801e-01 4.2292507e+01 
-2.6746723e-01 7.0216429e-01 4.2000870e+01 
6.4714879e-02 6.3520777e-01 4.2024277e+01 
-4.3632188e-01 9.6402657e-01 4.1934975e+01 
-5.4755262e-03 5.2092212e-01 4.2014156e+01 
-2.3078828e-01 8.1064087e-01 4.1931458e+01 
2.3550548e-01 4.7116494e-01 4.2073269e+01 
2.0610523e-01 4.1123796e-01 4.2066772e+01 
-3.9517213e-02 7.4775779e-01 4.1922287e+01 
-1.3978374e-01 6.0220873e-01 4.1911320e+01 
-3.0346894e-01 9.2068475e-01 4.1863613e+01 
-3.9432141e-01 8.4618556e-01 4.1861881e+01 
-1.6077711e-01 8.4452641e-01 4.1840263e+01 
-2.6568118e-01 6.9934219e-01 4.1828377e+01 
-4.3632129e-01 9.6402299e-01 4.1791718e+01 
5.0338638e-01 2.9562023e-01 4.2048656e+01 
9.4028555e-02 6.0672593e-01 4.1834507e+01 
3.0205652e-02 4.9819478e-01 4.1824417e+01 
-3.8116732e-01 8.2744831e-01 4.1725647e+01 
-3.0189002e-01 9.2085695e-01 4.1719719e+01 
-3.3455357e-02 7.4522001e-01 4.1747829e+01 
-1.3521814e-01 5.9732240e-01 4.1736786e+01 
-4.3632072e-01 9.6401960e-01 4.1647179e+01 
-1.5697217e-01 8.4424627e-01 4.1663853e+01 
-2.6385748e-01 6.9645494e-01 4.1651920e+01 
8.0488607e-02 6.2478805e-01 4.1676235e+01 
2.6870471e-01 4.4547972e-01 4.1752304e+01 
9.6269641e-03 5.0785345e-01 4.1665993e+01 
2.4764967e-01 3.8646612e-01 4.1743168e+01 
-3.0029076e-01 9.2101562e-01 4.1574532e+01 
-3.9388368e-01 8.4456980e-01 4.1572796e+01 
5.1745731e-01 2.8556010e-01 4.1803486e+01 
-2.7231261e-02 7.4254233e-01 4.1569210e+01 
-1.3049847e-01 5.9228569e-01 4.1558201e+01 
-4.3632016e-01 9.6401632e-01 4.1501339e+01 
-1.5309690e-01 8.4393430e-01 4.1483204e+01 
-2.6199502e-01 6.9349992e-01 4.1471333e+01 
-2.9867104e-01 9.2115986e-01 4.1428024e+01 
-3.9364263e-01 8.4372103e-01 4.1426289e+01 
1.1125199e-01 5.9476525e-01 4.1477348e+01 
4.7217656e-02 4.8404291e-01 4.1467384e+01 
-4.3631962e-01 9.6401310e-01 4.1354160e+01 
-2.0839609e-02 7.3971421e-01 4.1386261e+01 
-1.2561750e-01 5.8709091e-01 4.1375404e+01 
5.3156406e-01 2.7540097e-01 4.1556946e+01 
-1.4915068e-01 8.4358656e-01 4.1298138e+01 
-2.9703063e-01 9.2128879e-01 4.1280167e+01 
-3.9338648e-01 8.4284443e-01 4.1278431e+01 
-2.6009262e-01 6.9047421e-01 4.1286449e+01 
2.9365057e-01 4.2687622e-01 4.1391586e+01 
9.7278498e-02 6.1333776e-01 4.1311302e+01 
2.7470219e-01 3.6807936e-01 4.1382729e+01 
2.5872495e-02 4.9389899e-01 4.1301384e+01 
-4.3631911e-01 9.6401012e-01 4.1205620e+01 
-1.4274905e-02 7.3672432e-01 4.1198803e+01 
-1.2056758e-01 5.8173001e-01 4.1188221e+01 
-2.9536936e-01 9.2140132e-01 4.1130928e+01 
[...]
POINT_DATA 4496
FIELD FieldData 5
DISPLACEMENT 3 4496  float
5.0797067e-03 5.5006347e-03 -7.3258110e-05 
5.0578676e-03 5.4701217e-03 -7.3251154e-05 
5.0900737e-03 5.5238460e-03 -8.0782200e-05 
5.1046894e-03 5.5109472e-03 -5.2072795e-05 
5.0685750e-03 5.4625771e-03 -5.3859811e-05 
5.0564939e-03 5.4770866e-03 -8.0908794e-05 
5.0358814e-03 5.4394035e-03 -7.3243384e-05 
5.1034219e-03 5.5458085e-03 -8.3642975e-05 
5.1253955e-03 5.5301446e-03 -4.3694705e-05 
5.0813984e-03 5.5155875e-03 -8.4108578e-05 
5.1035653e-03 5.4993290e-03 -4.3413427e-05 
5.0465888e-03 5.4317513e-03 -5.3758060e-05 
5.0343703e-03 5.4465164e-03 -8.1198821e-05 
5.0589694e-03 5.4848003e-03 -8.4580824e-05 
5.1173843e-03 5.5646454e-03 -8.3073188e-05 
5.0813397e-03 5.4679625e-03 -4.3130342e-05 
5.0137467e-03 5.4084766e-03 -7.3234231e-05 
5.1402496e-03 5.5489647e-03 -4.2034935e-05 
5.0597019e-03 5.4514403e-03 -5.4942422e-05 
5.0949804e-03 5.5327560e-03 -8.2560706e-05 
5.1173591e-03 5.5169174e-03 -4.1967043e-05 
5.0121020e-03 5.4157376e-03 -8.1480764e-05 
5.0244536e-03 5.4007196e-03 -5.3656742e-05 
5.0361226e-03 5.4534366e-03 -8.5060085e-05 
5.0587086e-03 5.4360246e-03 -4.2841897e-05 
5.1353276e-03 5.5834483e-03 -7.7680728e-05 
5.0621480e-03 5.4885675e-03 -8.4009509e-05 
4.9914750e-03 5.3773397e-03 -7.3220814e-05 
5.1543317e-03 5.5712727e-03 -4.4309982e-05 
5.0853333e-03 5.4714000e-03 -4.1281841e-05 
5.0128493e-03 5.4214783e-03 -8.5543863e-05 
4.9896860e-03 5.3847469e-03 -8.1767190e-05 
5.0021778e-03 5.3694849e-03 -5.3556607e-05 
5.0944723e-03 5.5252938e-03 -7.6753371e-05 
5.0356574e-03 5.4035033e-03 -4.2552001e-05 
5.0393273e-03 5.4571615e-03 -8.4424217e-05 
5.1125302e-03 5.5129305e-03 -4.4336393e-05 
5.1230039e-03 5.5611096e-03 -7.3265634e-05 
5.0627263e-03 5.4394850e-03 -4.0977757e-05 
5.1382408e-03 5.5515040e-03 -4.6635887e-05 
4.9690469e-03 5.3460067e-03 -7.3208714e-05 
5.1557599e-03 5.6044795e-03 -7.1207913e-05 
5.0701764e-03 5.4932735e-03 -7.8413192e-05 
5.0901086e-03 5.4806564e-03 -4.3503107e-05 
5.1686740e-03 5.5970470e-03 -4.9257596e-05 
4.9891323e-03 5.3889039e-03 -8.6032109e-05 
5.0160782e-03 5.4251561e-03 -8.4840001e-05 
4.9671223e-03 5.3535528e-03 -8.2047940e-05 
4.9797511e-03 5.3380383e-03 -5.3442644e-05 
5.0121853e-03 5.3703822e-03 -4.2258267e-05 
5.0397059e-03 5.4069841e-03 -4.0668510e-05 
5.1446692e-03 5.5865850e-03 -6.9139038e-05 
5.0495788e-03 5.4629687e-03 -7.7102908e-05 
5.1539508e-03 5.5813752e-03 -5.3465381e-05 
4.9464772e-03 5.3144493e-03 -7.3189127e-05 
5.0678006e-03 5.4499637e-03 -4.3892920e-05 
5.1051918e-03 5.5325879e-03 -7.0138769e-05 
5.1160324e-03 5.5258730e-03 -5.1263873e-05 
5.1775798e-03 5.6311255e-03 -6.7903151e-05 
5.1841172e-03 5.6279553e-03 -5.7294015e-05 
4.9923914e-03 5.3925351e-03 -8.5259919e-05 
5.0251610e-03 5.4307966e-03 -7.8781166e-05 
4.9649654e-03 5.3557064e-03 -8.6526648e-05 
4.9444032e-03 5.3221416e-03 -8.2332917e-05 
4.9571791e-03 5.3063855e-03 -5.3333941e-05 
5.0162575e-03 5.3738877e-03 -4.0363015e-05 
5.0445632e-03 5.4165148e-03 -4.3028787e-05 
4.9882652e-03 5.3366432e-03 -4.1964937e-05 
4.9237506e-03 5.2826907e-03 -7.3172785e-05 
5.0643743e-03 5.4755327e-03 -7.0126538e-05 
5.0750170e-03 5.4686838e-03 -5.1335075e-05 
4.9682534e-03 5.3592874e-03 -8.5673128e-05 
4.9923635e-03 5.3401696e-03 -4.0049548e-05 
4.9215415e-03 5.2905302e-03 -8.2608967e-05 
4.9344627e-03 5.2745268e-03 -5.3222990e-05 
5.0029997e-03 5.3982530e-03 -7.7425429e-05 
4.9403338e-03 5.3218580e-03 -8.7020839e-05 
5.0214049e-03 5.3846762e-03 -4.3454580e-05 
4.9638944e-03 5.3022709e-03 -4.1668791e-05 
5.1973304e-03 5.6656171e-03 -7.3846648e-05 
4.9008741e-03 5.2507133e-03 -7.3158102e-05 
5.1582893e-03 5.6111440e-03 -7.3912917e-05 
4.9776696e-03 5.3648627e-03 -7.9155892e-05 
4.9973084e-03 5.3499886e-03 -4.2553405e-05 
4.9436563e-03 5.3253882e-03 -8.6088410e-05 
4.9095233e-03 5.2412343e-03 -5.4548549e-05 
4.8985099e-03 5.2586850e-03 -8.2894592e-05 
4.9680285e-03 5.3058276e-03 -3.9740444e-05 
4.9152276e-03 5.2873576e-03 -8.7516921e-05 
4.9390728e-03 5.2672615e-03 -4.1360665e-05 
5.1190509e-03 5.5563957e-03 -7.3976575e-05 
5.0182049e-03 5.4110624e-03 -7.0160073e-05 
4.8778383e-03 5.2185333e-03 -7.3142844e-05 
5.0257081e-03 5.3998460e-03 -5.1344057e-05 
4.9546394e-03 5.3310064e-03 -7.7717777e-05 
4.9185851e-03 5.2908282e-03 -8.6496657e-05 
4.8753559e-03 5.2266470e-03 -8.3161263e-05 
4.8885597e-03 5.2101538e-03 -5.2987099e-05 
4.9732453e-03 5.3169415e-03 -4.3023199e-05 
4.9432162e-03 5.2708322e-03 -3.9422415e-05 
4.8896321e-03 5.2521657e-03 -8.8011162e-05 
5.0796163e-03 5.5013327e-03 -7.4036936e-05 
4.9137603e-03 5.2315765e-03 -4.1062569e-05 
4.8546782e-03 5.1861252e-03 -7.3111703e-05 
4.9283514e-03 5.2963323e-03 -7.9496793e-05 
4.9482458e-03 5.2809538e-03 -4.2087056e-05 
4.8520388e-03 5.1943883e-03 -8.3441642e-05 
4.8654005e-03 5.1776660e-03 -5.2875104e-05 
4.8930277e-03 5.2555809e-03 -8.6904241e-05 
4.9179443e-03 5.2351840e-03 -3.9115967e-05 
4.9690437e-03 5.3424002e-03 -7.0197253e-05 
4.8635299e-03 5.2162698e-03 -8.8503133e-05 
4.9791280e-03 5.3346218e-03 -5.1193059e-05 
4.8879795e-03 5.1952358e-03 -4.0767638e-05 
5.0400035e-03 5.4460312e-03 -7.4118114e-05 
4.8313448e-03 5.1535433e-03 -7.3085219e-05 
4.8470697e-03 5.1498031e-03 -5.0888655e-05 
4.8285839e-03 5.1619480e-03 -8.3696083e-05 
4.9044052e-03 5.2611069e-03 -7.7972276e-05 
4.9232300e-03 5.2466495e-03 -4.2613530e-05 
4.8669614e-03 5.2196449e-03 -8.7306093e-05 
4.8921681e-03 5.1988554e-03 -3.8795632e-05 
4.8369346e-03 5.1796958e-03 -8.8992907e-05 
4.8078806e-03 5.1207463e-03 -7.3047551e-05 
4.8616841e-03 5.1581650e-03 -4.0462379e-05 
5.0002025e-03 5.3904550e-03 -7.4178002e-05 
4.8771109e-03 5.2250894e-03 -7.9798185e-05 
4.8239008e-03 5.1164711e-03 -5.0023806e-05 
4.8049856e-03 5.1292866e-03 -8.3933970e-05 
4.8972801e-03 5.2093044e-03 -4.1637752e-05 
4.9204780e-03 5.2744816e-03 -7.0144582e-05 
4.8404122e-03 5.1829950e-03 -8.7712302e-05 
4.9307719e-03 5.2674008e-03 -5.1445924e-05 
4.8659095e-03 5.1618414e-03 -3.8512371e-05 
4.7842809e-03 5.0877347e-03 -7.2987721e-05 
4.8097963e-03 5.1423809e-03 -8.9495232e-05 
4.8348797e-03 5.1204213e-03 -4.0166735e-05 
4.7812196e-03 5.0964272e-03 -8.4191182e-05 
4.7989185e-03 5.0813337e-03 -4.9778759e-05 
4.9602813e-03 5.3347289e-03 -7.4230615e-05 
4.8522102e-03 5.1884288e-03 -7.8172372e-05 
4.8712734e-03 5.1736846e-03 -4.2218107e-05 
4.8133316e-03 5.1456243e-03 -8.8081797e-05 
4.7605159e-03 5.0545516e-03 -7.2944240e-05 
4.8391265e-03 5.1241205e-03 -3.8206057e-05 
4.7821314e-03 5.1043276e-03 -8.9976231e-05 
4.8075551e-03 5.0819591e-03 -3.9869396e-05 
4.7573312e-03 5.0633834e-03 -8.4430554e-05 
4.7727670e-03 5.0455020e-03 -5.0339320e-05 
4.8238635e-03 5.1509887e-03 -8.0037673e-05 
4.8443540e-03 5.1349299e-03 -4.1199470e-05 
4.7366228e-03 5.0211907e-03 -7.2893628e-05 
4.8610144e-03 5.1915869e-03 -7.0297305e-05 
4.7857254e-03 5.1075220e-03 -8.8441935e-05 
4.8715910e-03 5.1842355e-03 -5.0987193e-05 
4.8118308e-03 5.0857053e-03 -3.7909260e-05 
4.9201809e-03 5.2787350e-03 -7.4266638e-05 
4.7539198e-03 5.0655217e-03 -9.0453570e-05 
4.7796890e-03 5.0427616e-03 -3.9574803e-05 
4.7333213e-03 5.0301743e-03 -8.4652325e-05 
4.7474178e-03 5.0123087e-03 -5.2207750e-05 
4.7979830e-03 5.1128855e-03 -7.8318313e-05 
4.7125909e-03 4.9876203e-03 -7.2849361e-05 
4.8173056e-03 5.0979680e-03 -4.1876156e-05 
4.7575808e-03 5.0686719e-03 -8.8794368e-05 
4.7840327e-03 5.0465609e-03 -3.7597994e-05 
4.7091134e-03 4.9967100e-03 -8.4911968e-05 
4.7212145e-03 4.9771089e-03 -5.3353171e-05 
4.7251466e-03 5.0259475e-03 -9.0923066e-05 
4.8799571e-03 5.2225576e-03 -7.4307369e-05 
4.7513195e-03 5.0028525e-03 -3.9258302e-05 
4.7685541e-03 5.0740023e-03 -8.0214857e-05 
4.6883547e-03 4.9538328e-03 -7.2815259e-05 
4.7893748e-03 5.0577642e-03 -4.0806201e-05 
4.7180424e-03 4.9935388e-03 -7.1390517e-05 
4.8093176e-03 5.1194527e-03 -7.0341237e-05 
4.8200232e-03 5.1120999e-03 -5.0861643e-05 
4.7288933e-03 5.0290781e-03 -8.9142355e-05 
4.7556870e-03 5.0066966e-03 -3.7288133e-05 
4.6847542e-03 4.9630459e-03 -8.5146479e-05 
4.6991389e-03 4.9447245e-03 -5.1946383e-05 
4.6957978e-03 4.9856193e-03 -9.1400296e-05 
4.7223945e-03 4.9621332e-03 -3.8940707e-05 
4.6639894e-03 4.9198275e-03 -7.2749172e-05 
4.8396713e-03 5.1663262e-03 -7.4356336e-05 
4.7416328e-03 5.0343713e-03 -7.8404591e-05 
4.7612395e-03 5.0194045e-03 -4.1566138e-05 
4.6796626e-03 4.9150074e-03 -4.9705242e-05 
4.6602911e-03 4.9292198e-03 -8.5344014e-05 
4.6996125e-03 4.9886559e-03 -8.9481829e-05 
4.7267657e-03 4.9660336e-03 -3.6971385e-05 
4.6395035e-03 4.8856246e-03 -7.2655690e-05 
4.6658656e-03 4.9444423e-03 -9.1867703e-05 
4.6928539e-03 4.9206316e-03 -3.8652292e-05 
4.7110505e-03 4.9939631e-03 -8.0322643e-05 
4.7591762e-03 5.0489809e-03 -6.9893060e-05 
4.7322023e-03 4.9776491e-03 -4.0445451e-05 
4.7691790e-03 5.0426684e-03 -5.2185602e-05 
4.6356479e-03 4.8951842e-03 -8.5562882e-05 
4.6503660e-03 4.8764176e-03 -5.1620824e-05 
4.7993935e-03 5.1101558e-03 -7.4394899e-05 
4.6697562e-03 4.9474258e-03 -8.9804467e-05 
4.6972949e-03 4.9246191e-03 -3.6702088e-05 
4.6148743e-03 4.8512919e-03 -7.2575225e-05 
4.6353173e-03 4.9024522e-03 -9.2299320e-05 
4.6627391e-03 4.8783626e-03 -3.8378417e-05 
4.6109054e-03 4.8609823e-03 -8.5746571e-05 
4.6257600e-03 4.8420350e-03 -5.1492152e-05 
4.6830340e-03 4.9527148e-03 -7.8399535e-05 
4.7029657e-03 4.9378676e-03 -4.1273830e-05 
4.5900852e-03 4.8168139e-03 -7.2514071e-05 
4.6393019e-03 4.9053985e-03 -9.0087742e-05 
4.6672323e-03 4.8824139e-03 -3.6393503e-05 
4.7589811e-03 5.0537623e-03 -7.4385374e-05 
4.6041626e-03 4.8596496e-03 -9.2716022e-05 
4.5860070e-03 4.8266444e-03 -8.5933265e-05 
4.6009840e-03 4.8074443e-03 -5.1315321e-05 
4.6320409e-03 4.8352736e-03 -3.8041417e-05 
4.7011389e-03 4.9679107e-03 -6.9737362e-05 
4.6512568e-03 4.9106963e-03 -8.0357408e-05 
4.7110794e-03 4.9621342e-03 -5.2572406e-05 
4.6728267e-03 4.8945099e-03 -4.0093237e-05 
4.5651807e-03 4.7820685e-03 -7.2432245e-05 
4.6082656e-03 4.8625306e-03 -9.0385751e-05 
4.6365438e-03 4.8393947e-03 -3.6094301e-05 
4.5609563e-03 4.7920300e-03 -8.6136723e-05 
4.5761219e-03 4.7726510e-03 -5.1170508e-05 
4.5723836e-03 4.8159538e-03 -9.3157483e-05 
4.6007168e-03 4.7913757e-03 -3.7750568e-05 
4.7185342e-03 4.9973712e-03 -7.4398966e-05 
4.5400965e-03 4.7471887e-03 -7.2358969e-05 
4.6221069e-03 4.8677954e-03 -7.8328951e-05 
4.6423366e-03 4.8531592e-03 -4.1048224e-05 
4.5357645e-03 4.7572879e-03 -8.6333464e-05 
4.5510638e-03 4.7376780e-03 -5.0996459e-05 
4.5765564e-03 4.8187594e-03 -9.0634698e-05 
4.6052854e-03 4.7955695e-03 -3.5820613e-05 
4.5149056e-03 4.7120843e-03 -7.2252325e-05 
4.5399652e-03 4.7713970e-03 -9.3532115e-05 
4.5687342e-03 4.7466154e-03 -3.7432470e-05 
4.6407701e-03 4.8836297e-03 -6.9574213e-05 
4.6506771e-03 4.8785107e-03 -5.3018273e-05 
4.5907041e-03 4.8240297e-03 -7.8200501e-05 
4.6781125e-03 4.9410509e-03 -7.4413103e-05 
4.5104632e-03 4.7223391e-03 -8.6467779e-05 
4.5259153e-03 4.7025783e-03 -5.0875638e-05 
4.6110926e-03 4.8096390e-03 -4.0926268e-05 
4.5442646e-03 4.7741635e-03 -9.0862661e-05 
4.5733573e-03 4.7508874e-03 -3.5544919e-05 
4.4895518e-03 4.6769045e-03 -7.2167451e-05 
4.5068366e-03 4.7259303e-03 -9.3924304e-05 
4.5361887e-03 4.7010239e-03 -3.7133479e-05 
4.4850269e-03 4.6873386e-03 -8.6599699e-05 
4.5005884e-03 4.6673096e-03 -5.0693881e-05 
4.5587048e-03 4.7794231e-03 -7.8094141e-05 
4.5153894e-03 4.6936655e-03 -5.5772231e-05 
4.5792693e-03 4.7653038e-03 -4.0869534e-05 
4.4640913e-03 4.6414980e-03 -7.2038172e-05 
4.6375422e-03 4.8844530e-03 -7.4385345e-05 
4.5886836e-03 4.8114052e-03 -6.9802452e-05 
4.5113023e-03 4.7286805e-03 -9.0995840e-05 
4.5990683e-03 4.8050927e-03 -5.1623188e-05 
4.5408406e-03 4.7054417e-03 -3.5268044e-05 
4.4594277e-03 4.6520517e-03 -8.6691012e-05 
4.4751456e-03 4.6318797e-03 -5.0525930e-05 
4.4731796e-03 4.6796682e-03 -9.4187613e-05 
4.5029302e-03 4.6546254e-03 -3.6916168e-05 
4.4384957e-03 4.6060123e-03 -7.1951734e-05 
4.5260931e-03 4.7339792e-03 -7.7984099e-05 
4.5468090e-03 4.7201510e-03 -4.0787210e-05 
4.4777286e-03 4.6823467e-03 -9.1176655e-05 
4.4337688e-03 4.6166745e-03 -8.6816181e-05 
4.4496213e-03 4.5963167e-03 -5.0346891e-05 
4.5076511e-03 4.6591316e-03 -3.4967914e-05 
4.5969188e-03 4.8280363e-03 -7.4427480e-05 
4.4387570e-03 4.6324581e-03 -9.4559560e-05 
4.4127805e-03 4.5703300e-03 -7.1828916e-05 
4.5603006e-03 4.7554597e-03 -5.5368459e-05 
4.5529180e-03 4.7605666e-03 -6.8819645e-05 
4.4690454e-03 4.6073548e-03 -3.6568741e-05 
4.4928300e-03 4.6876776e-03 -7.7800578e-05 
4.5136693e-03 4.6741208e-03 -4.0759776e-05 
4.4079269e-03 4.5811241e-03 -8.6950175e-05 
4.4239131e-03 4.5605861e-03 -5.0166498e-05 
4.4434443e-03 4.6350672e-03 -9.1332178e-05 
4.4738357e-03 4.6119406e-03 -3.4699038e-05 
4.3868725e-03 4.5344578e-03 -7.1694638e-05 
4.5563639e-03 4.7716000e-03 -7.4356147e-05 
4.4035777e-03 4.5842640e-03 -9.4912386e-05 
4.4344608e-03 4.5591393e-03 -3.6221751e-05 
4.3819030e-03 4.5454144e-03 -8.7059307e-05 
4.3979986e-03 4.5246677e-03 -5.0004241e-05 
4.5198514e-03 4.6992619e-03 -5.5322977e-05 
4.5125075e-03 4.7044414e-03 -6.8776375e-05 
4.4581075e-03 4.6395054e-03 -7.7653160e-05 
4.4787936e-03 4.6256585e-03 -4.0617630e-05 
4.4012889e-03 4.5446898e-03 -6.3335072e-05 
4.3608798e-03 4.4984869e-03 -7.1532726e-05 
4.4083088e-03 4.5868638e-03 -9.1591217e-05 
4.4392324e-03 4.5637037e-03 -3.4419125e-05 
4.3558571e-03 4.5094066e-03 -8.6912238e-05 
4.3719425e-03 4.4887960e-03 -5.0064245e-05 
4.3683653e-03 4.5360113e-03 -9.5088588e-05 
4.5158817e-03 4.7153560e-03 -7.4272859e-05 
4.4000978e-03 4.5114146e-03 -3.5987036e-05 
4.3351855e-03 4.4630696e-03 -7.1432252e-05 
4.4214628e-03 4.5894459e-03 -7.8152836e-05 
4.4434955e-03 4.5760870e-03 -4.0000141e-05 
4.4796579e-03 4.6435511e-03 -5.5291002e-05 
4.4723698e-03 4.6487581e-03 -6.8682552e-05 
4.3665404e-03 4.4968440e-03 -6.3383144e-05 
4.3301876e-03 4.4739814e-03 -8.6737149e-05 
4.3729260e-03 4.5385938e-03 -9.2001988e-05 
4.3461719e-03 4.4533350e-03 -5.0074170e-05 
4.4049062e-03 4.5159208e-03 -3.4087894e-05 
4.3098554e-03 4.4280142e-03 -7.1247319e-05 
4.3340358e-03 4.4889986e-03 -9.5261414e-05 
4.3664956e-03 4.4648508e-03 -3.5764286e-05 
4.4756113e-03 4.6594567e-03 -7.4204712e-05 
4.3858248e-03 4.5411894e-03 -7.8933146e-05 
4.4092336e-03 4.5280214e-03 -3.9395822e-05 
4.3047196e-03 4.4388701e-03 -8.6639637e-05 
4.3206913e-03 4.4183475e-03 -5.0097660e-05 
4.4219550e-03 4.5800665e-03 -6.9528563e-05 
4.4329511e-03 4.5743259e-03 -5.1211595e-05 
4.3384121e-03 4.4915741e-03 -9.2398965e-05 
4.3712920e-03 4.4691446e-03 -3.3746768e-05 
4.3242164e-03 4.4385055e-03 -6.3228661e-05 
4.2847726e-03 4.3934705e-03 -7.1109629e-05 
4.3336237e-03 4.4192872e-03 -3.5490953e-05 
4.3004188e-03 4.4430275e-03 -9.5407064e-05 
4.2796275e-03 4.4042454e-03 -8.6484128e-05 
4.2955163e-03 4.3838392e-03 -5.0120212e-05 
4.3756585e-03 4.4810232e-03 -3.8787293e-05 
4.3509952e-03 4.4940761e-03 -7.9694160e-05 
4.4356566e-03 4.6041762e-03 -7.4177449e-05 
4.2599211e-03 4.3593347e-03 -7.0993847e-05 
4.3383623e-03 4.4234409e-03 -3.3409655e-05 
4.3046270e-03 4.4456734e-03 -9.2781098e-05 
4.3929867e-03 4.5389826e-03 -6.8637179e-05 
4.3915338e-03 4.5177853e-03 -5.1827770e-05 
4.2547509e-03 4.3700421e-03 -8.6315289e-05 
4.2691561e-03 4.3483735e-03 -5.0668270e-05 
4.3014572e-03 4.3746722e-03 -3.5113422e-05 
4.2675743e-03 4.3982654e-03 -9.5637821e-05 
4.2671366e-03 4.3629603e-03 -6.5579174e-05 
4.2353552e-03 4.3254825e-03 -7.0793532e-05 
4.3426831e-03 4.4350242e-03 -3.8279501e-05 
4.3239146e-03 4.4523571e-03 -7.5852302e-05 
4.3060365e-03 4.3787733e-03 -3.3187163e-05 
4.2716316e-03 4.4007832e-03 -9.3128423e-05 
4.2301198e-03 4.3361373e-03 -8.6108004e-05 
4.3961727e-03 4.5496626e-03 -7.4209907e-05 
4.2458745e-03 4.3158503e-03 -5.0078044e-05 
4.2620371e-03 4.3491814e-03 -5.9714115e-05 
4.3553626e-03 4.4678291e-03 -5.1669369e-05 
4.2110458e-03 4.2921263e-03 -7.0636161e-05 
4.2697550e-03 4.3311156e-03 -3.4984692e-05 
4.2354204e-03 4.3543717e-03 -9.5709867e-05 
4.3537207e-03 4.4848495e-03 -6.8547692e-05 
4.3104123e-03 4.3901210e-03 -3.7674956e-05 
4.2836848e-03 4.4031236e-03 -8.0916550e-05 
4.2057699e-03 4.3027215e-03 -8.5984320e-05 
4.2214934e-03 4.2825141e-03 -5.0066075e-05 
4.2744125e-03 4.3351012e-03 -3.2851076e-05 
4.2393566e-03 4.3569230e-03 -9.3391835e-05 
4.2234319e-03 4.2950241e-03 -5.8507379e-05 
4.1869576e-03 4.2591449e-03 -7.0482900e-05 
4.3568723e-03 4.4955253e-03 -7.4245683e-05 
4.2387848e-03 4.2884345e-03 -3.4655521e-05 
4.2039179e-03 4.3115299e-03 -9.5829819e-05 
4.3150708e-03 4.4087865e-03 -4.8490208e-05 
4.2985161e-03 4.4111745e-03 -7.0386879e-05 
4.1816444e-03 4.2696688e-03 -8.5806103e-05 
4.2787935e-03 4.3461225e-03 -3.7138208e-05 
4.2003873e-03 4.2499485e-03 -4.6739919e-05 
4.2511518e-03 4.3592984e-03 -8.1540245e-05 
4.1630496e-03 4.2264839e-03 -7.0342459e-05 
4.2433608e-03 4.2922748e-03 -3.2498967e-05 
4.2077270e-03 4.3141055e-03 -9.3633993e-05 
4.1733440e-03 4.2169266e-03 -5.0032664e-05 
4.1562398e-03 4.2334017e-03 -8.4286978e-05 
4.2084022e-03 4.2466479e-03 -3.4387227e-05 
4.1730232e-03 4.2695915e-03 -9.5941185e-05 
4.3178219e-03 4.4417274e-03 -7.4150972e-05 
4.1741193e-03 4.2393166e-03 -6.8402689e-05 
4.2477828e-03 4.3031503e-03 -3.6637903e-05 
4.2192033e-03 4.3163584e-03 -8.2138577e-05 
4.1394075e-03 4.1942890e-03 -7.0224938e-05 
4.2128554e-03 4.2504822e-03 -3.2275879e-05 
4.2759981e-03 4.3778387e-03 -6.8416601e-05 
4.2830054e-03 4.3726126e-03 -5.5424691e-05 
4.1586333e-03 4.1929907e-03 -4.6595291e-05 
4.1766791e-03 4.2720716e-03 -9.3821996e-05 
4.1377158e-03 4.2115105e-03 -8.7106971e-05 
4.2559709e-03 4.3222806e-03 -4.3621960e-05 
4.2358134e-03 4.3276460e-03 -7.2387738e-05 
4.1784714e-03 4.2057568e-03 -3.4197965e-05 
4.1429084e-03 4.2285728e-03 -9.5825519e-05 
4.1160728e-03 4.1624587e-03 -7.0036345e-05 
4.2173225e-03 4.2610206e-03 -3.6129783e-05 
4.1880296e-03 4.2744889e-03 -8.2664403e-05 
4.2788312e-03 4.3880865e-03 -7.4065174e-05 
4.1351155e-03 4.1595097e-03 -4.5151104e-05 
4.1121403e-03 4.1769571e-03 -8.7160362e-05 
4.1829715e-03 4.2094099e-03 -3.2010477e-05 
4.1463794e-03 4.2311242e-03 -9.4057134e-05 
4.0929704e-03 4.1309334e-03 -6.9849215e-05 
4.2374367e-03 4.3249791e-03 -6.8295434e-05 
4.2443508e-03 4.3197828e-03 -5.5428758e-05 
4.1491804e-03 4.1655987e-03 -3.3868764e-05 
4.1133408e-03 4.1885655e-03 -9.5861316e-05 
4.1873991e-03 4.2197416e-03 -3.5669720e-05 
4.0869750e-03 4.1422942e-03 -8.6650114e-05 
4.1501238e-03 4.2259037e-03 -8.5205131e-05 
4.2023654e-03 4.2483606e-03 -4.2901480e-05 
4.1056746e-03 4.1194707e-03 -4.5057302e-05 
4.1535646e-03 4.1692229e-03 -3.1773954e-05 
4.1167089e-03 4.1909856e-03 -9.4194038e-05 
4.0699863e-03 4.0997812e-03 -6.9664748e-05 
4.2402656e-03 4.3350994e-03 -7.3914060e-05 
4.0917597e-03 4.1265655e-03 -6.7426910e-05 
4.1203708e-03 4.1263802e-03 -3.3594537e-05 
4.1721486e-03 4.2399867e-03 -7.1602793e-05 
4.0642074e-03 4.1081789e-03 -8.3650062e-05 
4.0843165e-03 4.1492088e-03 -9.5868578e-05 
4.0799445e-03 4.0903469e-03 -4.9887396e-05 
4.1580177e-03 4.1793408e-03 -3.5201956e-05 
4.1992217e-03 4.2726696e-03 -6.8101770e-05 
4.2060828e-03 4.2675002e-03 -5.5311695e-05 
4.1274866e-03 4.1933008e-03 -8.3665174e-05 
4.0852604e-03 4.0881867e-03 -4.1743770e-05 
4.0472620e-03 4.0690065e-03 -6.9503229e-05 
4.1247127e-03 4.1298885e-03 -3.1443207e-05 
4.0875464e-03 4.1516889e-03 -9.4320952e-05 
4.0598288e-03 4.0637958e-03 -5.0349157e-05 
4.0419335e-03 4.0790457e-03 -8.4424166e-05 
4.0920638e-03 4.0877908e-03 -3.3335207e-05 
4.0558302e-03 4.1108206e-03 -9.5805859e-05 
4.2019226e-03 4.2826822e-03 -7.3815812e-05 
4.1290903e-03 4.1397163e-03 -3.4764827e-05 
4.0247650e-03 4.0385327e-03 -6.9312235e-05 
4.0910649e-03 4.1467315e-03 -8.5968451e-05 
4.0511093e-03 4.0448545e-03 -4.4056535e-05 
4.1468814e-03 4.1734907e-03 -4.3351894e-05 
4.0962966e-03 4.0912484e-03 -3.1202129e-05 
4.0684370e-03 4.0820991e-03 -5.6052475e-05 
4.0229470e-03 4.0562060e-03 -8.6784748e-05 
4.1612457e-03 4.2208554e-03 -6.8025220e-05 
4.0589594e-03 4.1131922e-03 -9.4443931e-05 
4.1680471e-03 4.2157243e-03 -5.5317996e-05 
4.0641841e-03 4.0500858e-03 -3.3164117e-05 
4.1125412e-03 4.1598505e-03 -7.2238705e-05 