# vtk DataFile Version 4.0
vtk output
ASCII
DATASET UNSTRUCTURED_GRID
POINTS 4496 float
-4.3633327e-01 9.6409470e-01 4.4200001e+01 
-4.3633258e-01 9.6409065e-01 4.4074627e+01 
-3.2152572e-01 9.1279918e-01 4.4200001e+01 
-3.8534868e-01 8.4052670e-01 4.4200001e+01 
-3.9589554e-01 8.5545403e-01 4.4010014e+01 
-3.2616228e-01 9.1667932e-01 4.4011734e+01 
-4.3633190e-01 9.6408653e-01 4.3948376e+01 
-2.1293370e-01 8.4677851e-01 4.4200001e+01 
-2.9042658e-01 7.3813015e-01 4.4200001e+01 
-2.1010752e-01 8.4669363e-01 4.4073502e+01 
-2.8908840e-01 7.3604190e-01 4.4072292e+01 
-3.9589015e-01 8.5505831e-01 4.3883316e+01 
-3.2487559e-01 9.1697580e-01 4.3885036e+01 
-2.0722924e-01 8.4660655e-01 4.3944645e+01 
-1.1981077e-01 7.7773046e-01 4.4200001e+01 
-2.8772619e-01 7.3391593e-01 4.3942276e+01 
-4.3633121e-01 9.6408242e-01 4.3821228e+01 
-1.9739023e-01 6.6468561e-01 4.4200001e+01 
-2.9444304e-01 7.8727525e-01 4.3879974e+01 
-8.7554991e-02 7.5255024e-01 4.4042213e+01 
-1.6445170e-01 6.4084798e-01 4.4041008e+01 
-3.2357255e-01 9.1726828e-01 4.3757431e+01 
-3.9587301e-01 8.5463828e-01 4.3755711e+01 
-2.0429766e-01 8.4651643e-01 4.3813354e+01 
-2.8633916e-01 7.3175091e-01 4.3809875e+01 
-2.6899619e-02 6.8901783e-01 4.4200001e+01 
-1.0567340e-01 7.7152997e-01 4.3875790e+01 
-4.3633053e-01 9.6407831e-01 4.3693161e+01 
-8.7133333e-02 5.9509218e-01 4.4200001e+01 
-1.8777622e-01 6.5475601e-01 4.3873402e+01 
-2.0131156e-01 8.4642249e-01 4.3679543e+01 
-3.2225290e-01 9.1755641e-01 4.3628902e+01 
-3.9584404e-01 8.5419410e-01 4.3627178e+01 
-1.0114321e-03 6.6670936e-01 4.3939713e+01 
-2.8492665e-01 7.2954547e-01 4.3675007e+01 
-1.0131179e-01 7.7015632e-01 4.3743176e+01 
-6.0682178e-02 5.7631296e-01 4.3938457e+01 
3.9444737e-02 6.2338209e-01 4.4053139e+01 
-1.8470748e-01 6.5131217e-01 4.3739727e+01 
-7.0938184e-03 5.4737431e-01 4.4052326e+01 
-4.3632981e-01 9.6407413e-01 4.3564159e+01 
7.6947339e-02 5.8804804e-01 4.4200001e+01 
-1.2721874e-02 6.8194175e-01 4.3817982e+01 
-7.7214435e-02 5.8474159e-01 4.3819649e+01 
4.0195532e-02 5.2425718e-01 4.4200001e+01 
-1.9826968e-01 8.4632379e-01 4.3543118e+01 
-9.6842363e-02 7.6872379e-01 4.3607994e+01 
-3.2091641e-01 9.1783977e-01 4.3499420e+01 
-3.9580306e-01 8.5372573e-01 4.3497700e+01 
-2.8348783e-01 7.2729832e-01 4.3537586e+01 
-1.8155001e-01 6.4778340e-01 4.3603539e+01 
1.5678726e-01 5.2239102e-01 4.4060219e+01 
1.0298219e-02 6.6009766e-01 4.3674484e+01 
1.3250886e-01 4.7546524e-01 4.4058990e+01 
-4.3632913e-01 9.6407002e-01 4.3434200e+01 
-5.0139543e-02 5.6696451e-01 4.3671154e+01 
1.3504514e-01 5.4209155e-01 4.3856747e+01 
1.0361936e-01 4.8715758e-01 4.3855240e+01 
2.0846681e-01 4.8028421e-01 4.4200001e+01 
1.9279444e-01 4.4799727e-01 4.4200001e+01 
-9.2261828e-02 7.6722860e-01 4.3470158e+01 
-1.4701239e-03 6.7547697e-01 4.3552124e+01 
-1.9517080e-01 8.4621930e-01 4.3403992e+01 
-3.1956279e-01 9.1811794e-01 4.3368977e+01 
-3.9574999e-01 8.5323322e-01 4.3367252e+01 
-1.7830023e-01 6.4416617e-01 4.3464752e+01 
-6.7131944e-02 5.7555372e-01 4.3547829e+01 
-2.8202194e-01 7.2500783e-01 4.3397518e+01 
-4.3632844e-01 9.6406585e-01 4.3303261e+01 
1.5138821e-01 5.3037512e-01 4.3609200e+01 
1.2119007e-01 4.7490793e-01 4.3606068e+01 
-8.7566733e-02 7.6566672e-01 4.3329563e+01 
-1.7495437e-01 6.4045686e-01 4.3323273e+01 
-3.1819177e-01 9.1839045e-01 4.3237537e+01 
-3.9568463e-01 8.5271639e-01 4.3235813e+01 
2.2269404e-02 6.5294570e-01 4.3398811e+01 
-1.9201367e-01 8.4610778e-01 4.3262066e+01 
-3.8899176e-02 5.5709696e-01 4.3393635e+01 
-2.8052819e-01 7.2267252e-01 4.3254715e+01 
3.7877345e-01 3.8273901e-01 4.4200001e+01 
-4.3632776e-01 9.6406174e-01 4.3171322e+01 
3.9241230e-01 3.7329337e-01 4.3965439e+01 
1.0283732e-02 6.6872352e-01 4.3271511e+01 
-5.6385640e-02 5.6585240e-01 4.3265472e+01 
-8.2753494e-02 7.6403379e-01 4.3186119e+01 
-4.0345609e-01 8.6371827e-01 4.3104889e+01 
-3.1680310e-01 9.1865683e-01 4.3105087e+01 
-1.7150842e-01 6.3665158e-01 4.3179005e+01 
-1.8879703e-01 8.4598809e-01 4.3117241e+01 
-2.7900568e-01 7.2029078e-01 4.3109074e+01 
4.0610775e-01 3.6380205e-01 4.3729839e+01 
1.6776134e-01 5.1882964e-01 4.3331150e+01 
-4.3632707e-01 9.6405768e-01 4.3038357e+01 
1.4031014e-01 4.6124566e-01 4.3307755e+01 
3.4952711e-02 6.4519531e-01 4.3111935e+01 
-7.7818394e-02 7.6232505e-01 4.3039719e+01 
-3.1539652e-01 9.1891652e-01 4.2971603e+01 
-3.9551663e-01 8.5160977e-01 4.2969879e+01 
-2.6899155e-02 5.4666573e-01 4.3105160e+01 
-1.6795819e-01 6.3274628e-01 4.3031849e+01 
-1.8551964e-01 8.4585863e-01 4.2969406e+01 
4.1985780e-01 3.5425979e-01 4.3493168e+01 
-2.7745360e-01 7.1786088e-01 4.2960495e+01 
-4.3632638e-01 9.6405357e-01 4.2904346e+01 
2.2723136e-02 6.6139150e-01 4.2979332e+01 
-4.4916678e-02 5.5559248e-01 4.2971806e+01 
-3.1397179e-01 9.1916907e-01 4.2837063e+01 
-3.9541367e-01 8.5101974e-01 4.2835335e+01 
-7.2757579e-02 7.6053542e-01 4.2890255e+01 
-1.6429928e-01 6.2873662e-01 4.2881699e+01 
1.8463810e-01 5.0694346e-01 4.3035332e+01 
-1.8218029e-01 8.4571803e-01 4.2818455e+01 
1.5503895e-01 4.5003417e-01 4.3027725e+01 
-2.7587104e-01 7.1538109e-01 4.2808868e+01 
4.3366045e-01 3.4466109e-01 4.3255390e+01 
-4.3632573e-01 9.6404958e-01 4.2769268e+01 
-3.8429454e-01 8.3484912e-01 4.2710606e+01 
-3.1252861e-01 9.1941386e-01 4.2701439e+01 
4.8404284e-02 6.3678014e-01 4.2813030e+01 
-1.4070326e-02 5.3562075e-01 4.2804932e+01 
-6.7567028e-02 7.5865942e-01 4.2737610e+01 
-1.6052702e-01 6.2461799e-01 4.2728443e+01 
-1.7877772e-01 8.4556442e-01 4.2664265e+01 
-4.3632504e-01 9.6404558e-01 4.2633099e+01 
-2.7425703e-01 7.1284944e-01 4.2654083e+01 
4.4751364e-01 3.3500037e-01 4.3016472e+01 
3.5901129e-02 6.5341437e-01 4.2674721e+01 
-3.7959340e-01 8.2794034e-01 4.2568317e+01 
-3.1106678e-01 9.1965032e-01 4.2564713e+01 
-3.2659348e-02 5.4472327e-01 4.2665997e+01 
2.0396979e-01 4.9291667e-01 4.2740131e+01 
-6.2242586e-02 7.5669110e-01 4.2581669e+01 
1.7765003e-01 4.3475360e-01 4.2732578e+01 
-1.5663649e-01 6.2038553e-01 4.2571964e+01 
-4.3632439e-01 9.6404165e-01 4.2495808e+01 
-1.7531081e-01 8.4539592e-01 4.2506718e+01 
-2.7261066e-01 7.1026409e-01 4.2496017e+01 
-3.0958602e-01 9.1987789e-01 4.2426853e+01 
-3.7859210e-01 8.2613736e-01 4.2421188e+01 
4.6141517e-01 3.2527190e-01 4.2776375e+01 
6.2686495e-02 6.2762415e-01 4.2501175e+01 
-3.3570320e-04 5.2390522e-01 4.2492062e+01 
-5.6779940e-02 7.5462401e-01 4.2422298e+01 
-4.3632373e-01 9.6403772e-01 4.2357380e+01 
-1.5262254e-01 6.1603409e-01 4.2412144e+01 
-1.7177837e-01 8.4521037e-01 4.2345684e+01 
-2.7093092e-01 7.0762289e-01 4.2334549e+01 
-3.0808610e-01 9.2009580e-01 4.2287842e+01 
-3.8275370e-01 8.3137155e-01 4.2275047e+01 
4.9876589e-02 6.4471585e-01 4.2356720e+01 
-1.9539909e-02 5.3318781e-01 4.2347118e+01 
-4.3632311e-01 9.6403396e-01 4.2217781e+01 
2.1959943e-01 4.8236796e-01 4.2385345e+01 
-5.1174615e-02 7.5245124e-01 4.2259373e+01 
1.9034323e-01 4.2346162e-01 4.2378918e+01 
-1.4847966e-01 6.1155808e-01 4.2248856e+01 
4.7536272e-01 3.1546980e-01 4.2535065e+01 
-1.6817927e-01 8.4500539e-01 4.2181026e+01 
-2.6921678e-01 7.0492369e-01 4.2169544e+01 
-3.0656675e-01 9.2030340e-01 4.2147648e+01 
-3.9470181e-01 8.4769493e-01 4.2145920e+01 
7.7868804e-02 6.1763972e-01 4.2175373e+01 
-4.3632248e-01 9.6403021e-01 4.2076988e+01 
1.4390758e-02 5.1145434e-01 4.2165581e+01 
-4.5421973e-02 7.5016522e-01 4.2092751e+01 
-1.4420210e-01 6.0695171e-01 4.2081959e+01 
-3.0502778e-01 9.2049998e-01 4.2006248e+01 
-4.0175444e-01 8.5747409e-01 4.2004128e+01 
-1.6451253e-01 8.4477836e-01 4.2012604e+01 
4.8935395e-01 3.0558801e-01 4.2292507e+01 
-2.6746723e-01 7.0216429e-01 4.2000870e+01 
6.4714879e-02 6.3520777e-01 4.2024277e+01 
-4.3632188e-01 9.6402657e-01 4.1934975e+01 
-5.4755262e-03 5.2092212e-01 4.2014156e+01 
-2.3078828e-01 8.1064087e-01 4.1931458e+01 
2.3550548e-01 4.7116494e-01 4.2073269e+01 
2.0610523e-01 4.1123796e-01 4.2066772e+01 
-3.9517213e-02 7.4775779e-01 4.1922287e+01 
-1.3978374e-01 6.0220873e-01 4.1911320e+01 
-3.0346894e-01 9.2068475e-01 4.1863613e+01 
-3.9432141e-01 8.4618556e-01 4.1861881e+01 
-1.6077711e-01 8.4452641e-01 4.1840263e+01 
-2.6568118e-01 6.9934219e-01 4.1828377e+01 
-4.3632129e-01 9.6402299e-01 4.1791718e+01 
5.0338638e-01 2.9562023e-01 4.2048656e+01 
9.4028555e-02 6.0672593e-01 4.1834507e+01 
3.0205652e-02 4.9819478e-01 4.1824417e+01 
-3.8116732e-01 8.2744831e-01 4.1725647e+01 
-3.0189002e-01 9.2085695e-01 4.1719719e+01 
-3.3455357e-02 7.4522001e-01 4.1747829e+01 
-1.3521814e-01 5.9732240e-01 4.1736786e+01 
-4.3632072e-01 9.6401960e-01 4.1647179e+01 
-1.5697217e-01 8.4424627e-01 4.1663853e+01 
-2.6385748e-01 6.9645494e-01 4.1651920e+01 
8.0488607e-02 6.2478805e-01 4.1676235e+01 
2.6870471e-01 4.4547972e-01 4.1752304e+01 
9.6269641e-03 5.0785345e-01 4.1665993e+01 
2.4764967e-01 3.8646612e-01 4.1743168e+01 
-3.0029076e-01 9.2101562e-01 4.1574532e+01 
-3.9388368e-01 8.4456980e-01 4.1572796e+01 
5.1745731e-01 2.8556010e-01 4.1803486e+01 
-2.7231261e-02 7.4254233e-01 4.1569210e+01 
-1.3049847e-01 5.9228569e-01 4.1558201e+01 
-4.3632016e-01 9.6401632e-01 4.1501339e+01 
-1.5309690e-01 8.4393430e-01 4.1483204e+01 
-2.6199502e-01 6.9349992e-01 4.1471333e+01 
-2.9867104e-01 9.2115986e-01 4.1428024e+01 
-3.9364263e-01 8.4372103e-01 4.1426289e+01 
1.1125199e-01 5.9476525e-01 4.1477348e+01 
4.7217656e-02 4.8404291e-01 4.1467384e+01 
-4.3631962e-01 9.6401310e-01 4.1354160e+01 
-2.0839609e-02 7.3971421e-01 4.1386261e+01 
-1.2561750e-01 5.8709091e-01 4.1375404e+01 
5.3156406e-01 2.7540097e-01 4.1556946e+01 
-1.4915068e-01 8.4358656e-01 4.1298138e+01 
-2.9703063e-01 9.2128879e-01 4.1280167e+01 
-3.9338648e-01 8.4284443e-01 4.1278431e+01 
-2.6009262e-01 6.9047421e-01 4.1286449e+01 
2.9365057e-01 4.2687622e-01 4.1391586e+01 
9.7278498e-02 6.1333776e-01 4.1311302e+01 
2.7470219e-01 3.6807936e-01 4.1382729e+01 
2.5872495e-02 4.9389899e-01 4.1301384e+01 
-4.3631911e-01 9.6401012e-01 4.1205620e+01 
-1.4274905e-02 7.3672432e-01 4.1198803e+01 
-1.2056758e-01 5.8173001e-01 4.1188221e+01 
-2.9536936e-01 9.2140132e-01 4.1130928e+01 
[...]
POINT_DATA 4496
FIELD FieldData 5
DISPLACEMENT 3 4496  float
8.7339073e-02 8.1444643e-02 -5.8922439e-04 
8.6909987e-02 8.0999188e-02 -5.8768492e-04 
8.7372959e-02 8.1520990e-02 -8.0028956e-04 
8.7422073e-02 8.1479207e-02 -3.2507966e-04 
8.6761855e-02 8.0797099e-02 -3.3965279e-04 
8.6726032e-02 8.0848970e-02 -7.9589197e-04 
8.6477920e-02 8.0550641e-02 -5.8613205e-04 
8.7416820e-02 8.1593342e-02 -9.3779358e-04 
8.7490559e-02 8.1542730e-02 -2.8658565e-04 
8.6983904e-02 8.1145741e-02 -9.4562996e-04 
8.7054864e-02 8.1089862e-02 -2.8219735e-04 
8.6328514e-02 8.0346979e-02 -3.3672166e-04 
8.6292237e-02 8.0399677e-02 -7.9980772e-04 
8.6542942e-02 8.0689788e-02 -9.5360191e-04 
8.7462828e-02 8.1655480e-02 -1.0115751e-03 
8.6611286e-02 8.0628835e-02 -2.7774129e-04 
8.6042814e-02 8.0098949e-02 -5.8456371e-04 
8.7539539e-02 8.1604846e-02 -3.4444101e-04 
8.6362138e-02 8.0402680e-02 -4.4344732e-04 
8.6939566e-02 8.1116349e-02 -1.0307226e-03 
8.7011218e-02 8.1061855e-02 -3.7067520e-04 
8.5855380e-02 7.9947203e-02 -8.0371829e-04 
8.5892104e-02 7.9893686e-02 -3.3374940e-04 
8.6093672e-02 8.0225237e-02 -9.6171151e-04 
8.6159587e-02 8.0159359e-02 -2.7320191e-04 
8.7522112e-02 8.1717640e-02 -1.0148057e-03 
8.6357281e-02 8.0512844e-02 -1.0340180e-03 
8.5604653e-02 7.9644047e-02 -5.8296940e-04 
8.7585844e-02 8.1678353e-02 -4.7493819e-04 
8.6428292e-02 8.0450781e-02 -3.3814361e-04 
8.5635811e-02 7.9751790e-02 -9.6994982e-04 
8.5415401e-02 7.9491489e-02 -8.0767000e-04 
8.5452601e-02 7.9437181e-02 -3.3073916e-04 
8.6646080e-02 8.0809958e-02 -1.0210963e-03 
8.5699469e-02 7.9681180e-02 -2.6859037e-04 
8.5904323e-02 8.0044508e-02 -1.0424467e-03 
8.6703092e-02 8.0766588e-02 -4.9566070e-04 
8.7063298e-02 8.1240140e-02 -1.0071930e-03 
8.5973032e-02 7.9977870e-02 -3.3481623e-04 
8.7112084e-02 8.1206933e-02 -5.7782076e-04 
8.5163310e-02 7.9185925e-02 -5.8136863e-04 
8.7589636e-02 8.1787176e-02 -1.0119564e-03 
8.6219221e-02 8.0369495e-02 -1.0335918e-03 
8.6290807e-02 8.0333389e-02 -4.6752731e-04 
8.7632924e-02 8.1763238e-02 -6.5949600e-04 
8.5169055e-02 7.9269126e-02 -9.7831688e-04 
8.5442640e-02 7.9567134e-02 -1.0509932e-03 
8.4972247e-02 7.9032503e-02 -8.1162405e-04 
8.5009895e-02 7.8977369e-02 -3.2763489e-04 
8.5230693e-02 7.9193994e-02 -2.6389613e-04 
8.5509256e-02 7.9496123e-02 -3.3146076e-04 
8.7154970e-02 8.1343755e-02 -1.0505727e-03 
8.5742630e-02 7.9874896e-02 -1.0331251e-03 
8.7182574e-02 8.1323594e-02 -8.0069760e-04 
8.4718779e-02 7.8724429e-02 -5.7973020e-04 
8.5794285e-02 7.9823725e-02 -4.9534044e-04 
8.6445265e-02 8.0605991e-02 -1.0435965e-03 
8.6477317e-02 8.0580197e-02 -7.4077700e-04 
8.7661624e-02 8.1875153e-02 -1.0797564e-03 
8.7683521e-02 8.1864975e-02 -9.1135921e-04 
8.4971949e-02 7.9080418e-02 -1.0596673e-03 
8.5313588e-02 7.9432204e-02 -1.0459113e-03 
8.4693119e-02 7.8776985e-02 -9.8681904e-04 
8.4525816e-02 7.8570135e-02 -8.1561756e-04 
8.4563956e-02 7.8514226e-02 -3.2450794e-04 
8.5036665e-02 7.9005264e-02 -3.2810841e-04 
8.5366450e-02 7.9374239e-02 -4.6618376e-04 
8.4752910e-02 7.8697510e-02 -2.5913081e-04 
8.4270939e-02 7.8259587e-02 -5.7809218e-04 
8.5605592e-02 7.9736918e-02 -1.0549630e-03 
8.5632361e-02 7.9706222e-02 -7.5442920e-04 
8.4491931e-02 7.8584068e-02 -1.0684265e-03 
8.4554933e-02 7.8504950e-02 -3.2471761e-04 
8.4076107e-02 7.8104392e-02 -8.1960036e-04 
8.4114730e-02 7.8047685e-02 -3.2133190e-04 
8.4803879e-02 7.8903213e-02 -1.0453396e-03 
8.4207684e-02 7.8274995e-02 -9.9543133e-04 
8.4850878e-02 7.8845106e-02 -4.9547845e-04 
8.4265843e-02 7.8191407e-02 -2.5427953e-04 
8.7726481e-02 8.1988767e-02 -1.3166923e-03 
8.3819762e-02 7.7791281e-02 -5.7644752e-04 
8.6929657e-02 8.1163928e-02 -1.3270032e-03 
8.4357761e-02 7.8442916e-02 -1.0587141e-03 
8.4406435e-02 7.8378238e-02 -4.6519213e-04 
8.4002279e-02 7.8077726e-02 -1.0773016e-03 
8.3659597e-02 7.7577792e-02 -3.3221726e-04 
8.3622947e-02 7.7635095e-02 -8.2363805e-04 
8.4063806e-02 7.7994913e-02 -3.2133106e-04 
8.3712429e-02 7.7762887e-02 -1.0041624e-03 
8.3769217e-02 7.7675417e-02 -2.4930754e-04 
8.6129218e-02 8.0335304e-02 -1.3373292e-03 
8.4661409e-02 7.8759491e-02 -1.0666709e-03 
8.3365142e-02 7.7319495e-02 -5.7478790e-04 
8.4620081e-02 7.8658648e-02 -7.6782249e-04 
8.3827347e-02 7.7892371e-02 -1.0577069e-03 
8.3502650e-02 7.7561080e-02 -1.0862547e-03 
8.3166458e-02 7.7162333e-02 -8.2762836e-04 
8.3206013e-02 7.7104039e-02 -3.1479617e-04 
8.3870456e-02 7.7828296e-02 -4.9612694e-04 
8.3562881e-02 7.7474780e-02 -3.1790286e-04 
8.3206996e-02 7.7240229e-02 -1.0129947e-03 
8.5325062e-02 7.9502665e-02 -1.3476501e-03 
8.3262600e-02 7.7149116e-02 -2.4428882e-04 
8.2907155e-02 7.6844089e-02 -5.7306042e-04 
8.3362967e-02 7.7413253e-02 -1.0716319e-03 
8.3408251e-02 7.7342868e-02 -4.6462528e-04 
8.2706414e-02 7.6685935e-02 -8.3168887e-04 
8.2746498e-02 7.6626912e-02 -3.1148625e-04 
8.2992688e-02 7.7033736e-02 -1.0953067e-03 
8.3051912e-02 7.6944269e-02 -3.1450402e-04 
8.3656728e-02 7.7719338e-02 -1.0786826e-03 
8.2691021e-02 7.6706670e-02 -1.0219269e-03 
8.3668888e-02 7.7673286e-02 -7.7513343e-04 
8.2745768e-02 7.6612286e-02 -2.3919821e-04 
8.4517151e-02 7.8666180e-02 -1.3580341e-03 
8.2445547e-02 7.6365188e-02 -5.7133508e-04 
8.2330883e-02 7.6192066e-02 -2.9068752e-04 
8.2242846e-02 7.6205984e-02 -8.3567237e-04 
8.2810372e-02 7.6839685e-02 -1.0701710e-03 
8.2850426e-02 7.6770723e-02 -4.9739168e-04 
8.2471997e-02 7.6495394e-02 -1.1044323e-03 
8.2530431e-02 7.6402977e-02 -3.1104556e-04 
8.2164206e-02 7.6161996e-02 -1.0309552e-03 
8.1980407e-02 7.5882584e-02 -5.6955713e-04 
8.2218245e-02 7.6064363e-02 -2.3398301e-04 
8.3705351e-02 7.7825628e-02 -1.3683061e-03 
8.2326420e-02 7.6340467e-02 -1.0846055e-03 
8.1849299e-02 7.5690888e-02 -2.8053531e-04 
8.1775673e-02 7.5722270e-02 -8.3961384e-04 
8.2369186e-02 7.6265492e-02 -4.6455310e-04 
8.2655765e-02 7.6683342e-02 -1.0915259e-03 
8.1940331e-02 7.5945623e-02 -1.1136630e-03 
8.2668722e-02 7.6639734e-02 -7.9488888e-04 
8.1998192e-02 7.5850584e-02 -3.0770971e-04 
8.1511654e-02 7.5396210e-02 -5.6768733e-04 
8.1626043e-02 7.5605661e-02 -1.0401292e-03 
8.1679702e-02 7.5505234e-02 -2.2870963e-04 
8.1304722e-02 7.5234815e-02 -8.4364286e-04 
8.1347935e-02 7.5170450e-02 -2.7586412e-04 
8.2889795e-02 7.6981351e-02 -1.3784989e-03 
8.1750065e-02 7.5742267e-02 -1.0826326e-03 
8.1787989e-02 7.5669609e-02 -4.9930211e-04 
8.1397161e-02 7.5384080e-02 -1.1228436e-03 
8.1039101e-02 7.4906163e-02 -5.6586252e-04 
8.1454709e-02 7.5286686e-02 -3.0427999e-04 
8.1076227e-02 7.5037315e-02 -1.0493235e-03 
8.1129767e-02 7.4934393e-02 -2.2333521e-04 
8.0830105e-02 7.4743599e-02 -8.4762106e-04 
8.0845542e-02 7.4650466e-02 -2.7848652e-04 
8.1245154e-02 7.5221471e-02 -1.0975050e-03 
8.1286460e-02 7.5143240e-02 -4.6500040e-04 
8.0562823e-02 7.4412338e-02 -5.6399807e-04 
8.1449151e-02 7.5434089e-02 -1.1033515e-03 
8.0842137e-02 7.4810371e-02 -1.1320666e-03 
8.1466243e-02 7.5392716e-02 -7.9431478e-04 
8.0899656e-02 7.4710980e-02 -3.0087220e-04 
8.2070187e-02 7.6132849e-02 -1.3885538e-03 
8.0514304e-02 7.4456558e-02 -1.0585970e-03 
8.0567986e-02 7.4351445e-02 -2.1787180e-04 
8.0351740e-02 7.4248627e-02 -8.5154857e-04 
8.0394231e-02 7.4185960e-02 -2.9390334e-04 
8.0643356e-02 7.4597105e-02 -1.0950421e-03 
8.0082700e-02 7.3914565e-02 -5.6214316e-04 
8.0680177e-02 7.4522056e-02 -5.0206104e-04 
8.0274828e-02 7.4224055e-02 -1.1413284e-03 
8.0332711e-02 7.4122988e-02 -2.9740104e-04 
7.9869278e-02 7.3749498e-02 -8.5562299e-04 
7.9904057e-02 7.3680043e-02 -3.0275478e-04 
7.9939820e-02 7.3862940e-02 -1.0679294e-03 
8.1246607e-02 7.5280316e-02 -1.3985271e-03 
7.9994112e-02 7.3756091e-02 -2.1222608e-04 
8.0116011e-02 7.4053355e-02 -1.1102629e-03 
7.9598419e-02 7.3412746e-02 -5.6031003e-04 
8.0156893e-02 7.3973164e-02 -4.6614627e-04 
7.9685926e-02 7.3533632e-02 -7.1988511e-04 
8.0389827e-02 7.4337877e-02 -1.1143311e-03 
8.0407128e-02 7.4296340e-02 -8.0154423e-04 
7.9694808e-02 7.3624760e-02 -1.1506308e-03 
7.9753295e-02 7.3522367e-02 -2.9392241e-04 
7.9382807e-02 7.3246345e-02 -8.5961714e-04 
7.9426244e-02 7.3182225e-02 -2.8658551e-04 
7.9352312e-02 7.3256128e-02 -1.0773663e-03 
7.9407565e-02 7.3147610e-02 -2.0646933e-04 
7.9110183e-02 7.2906792e-02 -5.5834698e-04 
8.0419175e-02 7.4424118e-02 -1.4084090e-03 
7.9486802e-02 7.3400840e-02 -1.1073152e-03 
7.9523668e-02 7.3324859e-02 -5.0565961e-04 
7.8974150e-02 7.2709769e-02 -2.6356615e-04 
7.8892447e-02 7.2739229e-02 -8.6348352e-04 
7.9101466e-02 7.3011778e-02 -1.1599459e-03 
7.9160914e-02 7.2908446e-02 -2.9040597e-04 
7.8617945e-02 7.2396725e-02 -5.5626902e-04 
7.8751311e-02 7.2635353e-02 -1.0868391e-03 
7.8807697e-02 7.2525688e-02 -2.0070754e-04 
7.8935266e-02 7.2832420e-02 -1.1227707e-03 
7.9310343e-02 7.3222801e-02 -1.1330890e-03 
7.8976832e-02 7.2751693e-02 -4.6800586e-04 
7.9317726e-02 7.3177382e-02 -8.5244508e-04 
7.8397818e-02 7.2227910e-02 -8.6743355e-04 
7.8442350e-02 7.2162382e-02 -2.7885678e-04 
7.9588048e-02 7.3564596e-02 -1.4181103e-03 
7.8494415e-02 7.2384752e-02 -1.1692318e-03 
7.8555219e-02 7.2280966e-02 -2.8704904e-04 
7.8121535e-02 7.1882702e-02 -5.5422354e-04 
7.8136228e-02 7.2000302e-02 -1.0962427e-03 
7.8194216e-02 7.1889959e-02 -1.9488433e-04 
7.7899143e-02 7.1712464e-02 -8.7125617e-04 
7.7944107e-02 7.1646392e-02 -2.7505207e-04 
7.8276522e-02 7.2149605e-02 -1.1192507e-03 
7.8314774e-02 7.2074421e-02 -5.1011797e-04 
7.7620827e-02 7.1364596e-02 -5.5223447e-04 
7.7873096e-02 7.1743265e-02 -1.1783886e-03 
7.7935591e-02 7.1639359e-02 -2.8353508e-04 
7.8752607e-02 7.2700612e-02 -1.4274615e-03 
7.7506632e-02 7.1350522e-02 -1.1056404e-03 
7.7396132e-02 7.1192935e-02 -8.7509182e-04 
7.7441484e-02 7.1126044e-02 -2.7102427e-04 
7.7566624e-02 7.1239792e-02 -1.8870781e-04 
7.8091688e-02 7.1963646e-02 -1.1482976e-03 
7.7698976e-02 7.1554616e-02 -1.1349120e-03 
7.8099623e-02 7.1920775e-02 -8.7609241e-04 
7.7742808e-02 7.1475282e-02 -4.7055591e-04 
7.7115886e-02 7.0841879e-02 -5.5015506e-04 
7.7237062e-02 7.1086690e-02 -1.1875978e-03 
7.7301443e-02 7.0983097e-02 -2.8004093e-04 
7.6888718e-02 7.0668712e-02 -8.7898562e-04 
7.6934703e-02 7.0601285e-02 -2.6706854e-04 
7.6861918e-02 7.0685238e-02 -1.1151643e-03 
7.6924264e-02 7.0574760e-02 -1.8257636e-04 
7.7913098e-02 7.1832903e-02 -1.4366995e-03 
7.6606400e-02 7.0314966e-02 -5.4809090e-04 
7.7008434e-02 7.0839345e-02 -1.1308301e-03 
7.7049300e-02 7.0766546e-02 -5.1570026e-04 
7.6376848e-02 7.0140287e-02 -8.8285090e-04 
7.6423258e-02 7.0072122e-02 -2.6295925e-04 
7.6585472e-02 7.0414305e-02 -1.1966036e-03 
7.6652467e-02 7.0311710e-02 -2.7662830e-04 
7.6092556e-02 6.9783449e-02 -5.4588506e-04 
7.6201521e-02 7.0004046e-02 -1.1244625e-03 
7.6266505e-02 6.9894180e-02 -1.7621381e-04 
7.6814428e-02 7.0644900e-02 -1.1644020e-03 
7.6824397e-02 7.0606299e-02 -9.0213562e-04 
7.6351166e-02 7.0160553e-02 -1.1361829e-03 
7.7069655e-02 7.0961632e-02 -1.4457135e-03 
7.5860567e-02 6.9607265e-02 -8.8647089e-04 
7.5907476e-02 6.9538675e-02 -2.5900453e-04 
7.6393940e-02 7.0089988e-02 -5.1881321e-04 
7.5918093e-02 6.9725864e-02 -1.2054890e-03 
7.5987764e-02 6.9624528e-02 -2.7319050e-04 
7.5574055e-02 6.9247790e-02 -5.4374937e-04 
7.5524591e-02 6.9306247e-02 -1.1338302e-03 
7.5593166e-02 6.9197655e-02 -1.6978482e-04 
7.5339690e-02 6.9070168e-02 -8.9007482e-04 
7.5386934e-02 6.9000699e-02 -2.5477901e-04 
7.5677790e-02 6.9465391e-02 -1.1415307e-03 
7.5365767e-02 6.9019899e-02 -4.7650648e-04 
7.5722918e-02 6.9397517e-02 -5.2242237e-04 
7.5051017e-02 6.8707362e-02 -5.4142840e-04 
7.6221518e-02 7.0085399e-02 -1.4543114e-03 
7.5758703e-02 6.9553532e-02 -1.1666762e-03 
7.5234018e-02 6.9020592e-02 -1.2139429e-03 
7.5780243e-02 6.9520727e-02 -8.6870644e-04 
7.5307079e-02 6.8921365e-02 -2.6973308e-04 
7.4814022e-02 6.8528026e-02 -8.9350715e-04 
7.4861772e-02 6.8458155e-02 -2.5055662e-04 
7.4831232e-02 6.8591692e-02 -1.1426875e-03 
7.4903108e-02 6.8484731e-02 -1.6353230e-04 
7.4523255e-02 6.8162620e-02 -5.3926115e-04 
7.4987642e-02 6.8753310e-02 -1.1467512e-03 
7.5035475e-02 6.8688609e-02 -5.2620150e-04 
7.4532859e-02 6.8298057e-02 -1.2224809e-03 
7.4283853e-02 6.7981474e-02 -8.9705456e-04 
7.4332029e-02 6.7911036e-02 -2.4624352e-04 
7.4609518e-02 6.8201289e-02 -2.6616786e-04 
7.5368948e-02 6.9205843e-02 -1.4628900e-03 
7.4119918e-02 6.7859225e-02 -1.1519258e-03 
7.3990710e-02 6.7613021e-02 -5.3693762e-04 
7.4858628e-02 6.8591036e-02 -9.8768773e-04 
7.4832484e-02 6.8605900e-02 -1.2156229e-03 
7.4196070e-02 6.7754619e-02 -1.5663194e-04 
7.4279964e-02 6.8023652e-02 -1.1515568e-03 
7.4330829e-02 6.7962453e-02 -5.3046597e-04 
7.3748626e-02 6.7430116e-02 -9.0061175e-04 
7.3797226e-02 6.7359142e-02 -2.4187945e-04 
7.3813602e-02 6.7557290e-02 -1.2307927e-03 
7.3894635e-02 6.7463659e-02 -2.6270305e-04 
7.3453024e-02 6.7058519e-02 -5.3455378e-04 
7.4512295e-02 6.8322122e-02 -1.4707180e-03 
7.3390000e-02 6.7108080e-02 -1.1610265e-03 
7.3471121e-02 6.7006424e-02 -1.4957345e-04 
7.3208660e-02 6.6874340e-02 -9.0357056e-04 
7.3257603e-02 6.6802695e-02 -2.3768126e-04 
7.4000105e-02 6.7706145e-02 -9.9330046e-04 
7.3974341e-02 6.7721441e-02 -1.2229966e-03 
7.3542163e-02 6.7263506e-02 -1.1564475e-03 
7.3590271e-02 6.7199290e-02 -5.3072214e-04 
7.3116265e-02 6.6721529e-02 -5.8982626e-04 
7.2911322e-02 6.6500142e-02 -5.3204008e-04 
7.3080860e-02 6.6803291e-02 -1.2391955e-03 
7.3170207e-02 6.6716015e-02 -2.5439946e-04 
7.2668210e-02 6.6317223e-02 -9.0161059e-04 
7.2717212e-02 6.6246197e-02 -2.3544255e-04 
7.2654247e-02 6.6351339e-02 -1.1692027e-03 
7.3651493e-02 6.7434967e-02 -1.4781519e-03 
7.2747953e-02 6.6261016e-02 -1.4296570e-04 
7.2373509e-02 6.5946504e-02 -5.2979612e-04 
7.2788253e-02 6.6487849e-02 -1.1640707e-03 
7.2857603e-02 6.6441558e-02 -5.1346188e-04 
7.3139831e-02 6.6820517e-02 -1.0000913e-03 
7.3114492e-02 6.6836096e-02 -1.2303953e-03 
7.2397612e-02 6.5981284e-02 -5.8718462e-04 
7.2131924e-02 6.5764949e-02 -8.9943479e-04 
7.2349921e-02 6.6051699e-02 -1.2477305e-03 
7.2180599e-02 6.5693840e-02 -2.3304592e-04 
7.2451942e-02 6.5975100e-02 -2.4376901e-04 
7.1839780e-02 6.5396845e-02 -5.2722351e-04 
7.1931623e-02 6.5608665e-02 -1.1769189e-03 
7.2036393e-02 6.5528356e-02 -1.3650372e-04 
7.2790310e-02 6.6548064e-02 -1.4852206e-03 
7.2062172e-02 6.5741926e-02 -1.1729657e-03 
7.2144598e-02 6.5704584e-02 -4.9532694e-04 
7.1599066e-02 6.5216415e-02 -8.9744356e-04 
7.1647778e-02 6.5145865e-02 -2.3073389e-04 
7.2213344e-02 6.5900967e-02 -1.1926981e-03 
7.2251961e-02 6.5884806e-02 -8.8143221e-04 
7.1631879e-02 6.5314092e-02 -1.2558093e-03 
7.1744941e-02 6.5246180e-02 -2.3334799e-04 
7.1509980e-02 6.5067776e-02 -5.8291684e-04 
7.1309641e-02 6.4851694e-02 -5.2485359e-04 
7.1336068e-02 6.4807601e-02 -1.2992538e-04 
7.1221158e-02 6.4879030e-02 -1.1840933e-03 
7.1070269e-02 6.4672276e-02 -8.9510705e-04 
7.1118765e-02 6.4602263e-02 -2.2847130e-04 
7.1442604e-02 6.4979725e-02 -4.7766446e-04 
7.1348555e-02 6.5009348e-02 -1.1818637e-03 
7.1930453e-02 6.5663725e-02 -1.4920095e-03 
7.0783012e-02 6.4310610e-02 -5.2259915e-04 
7.1048871e-02 6.4529292e-02 -2.2318255e-04 
7.0925884e-02 6.4589635e-02 -1.2634346e-03 
7.1397334e-02 6.5070882e-02 -1.2448451e-03 
7.1339764e-02 6.4950675e-02 -9.0395624e-04 
7.0544913e-02 6.4132281e-02 -8.9263672e-04 
7.0581026e-02 6.4050913e-02 -2.3226258e-04 
7.0646621e-02 6.4098284e-02 -1.2297390e-04 
7.0522822e-02 6.4162776e-02 -1.1912209e-03 
7.0388809e-02 6.3919589e-02 -6.0122024e-04 
7.0260026e-02 6.3773081e-02 -5.2000408e-04 
7.0751041e-02 6.4266421e-02 -4.6085022e-04 
7.0587687e-02 6.4224534e-02 -1.1677507e-03 
7.0363134e-02 6.3824065e-02 -2.1371173e-04 
7.0231922e-02 6.3877665e-02 -1.2705242e-03 
7.0022993e-02 6.3595816e-02 -8.8989100e-04 
7.1072593e-02 6.4782634e-02 -1.4985822e-03 
7.0071116e-02 6.3526392e-02 -2.2369057e-04 
7.0032887e-02 6.3547507e-02 -5.6282495e-04 
7.0554964e-02 6.4144626e-02 -9.0547645e-04 
6.9740549e-02 6.3239887e-02 -5.1760161e-04 
6.9966882e-02 6.3400649e-02 -1.1715751e-04 
6.9835998e-02 6.3458361e-02 -1.1972476e-03 
7.0540629e-02 6.4191587e-02 -1.2510719e-03 
7.0070110e-02 6.3564956e-02 -4.4407207e-04 
6.9957383e-02 6.3582629e-02 -1.1982425e-03 
6.9504656e-02 6.3063674e-02 -8.8740187e-04 
6.9552742e-02 6.2994607e-02 -2.2138294e-04 
6.9687933e-02 6.3130178e-02 -2.0397644e-04 
6.9549441e-02 6.3178018e-02 -1.2768891e-03 
6.9372579e-02 6.2855706e-02 -4.7907085e-04 
6.9224373e-02 6.2710501e-02 -5.1521603e-04 
7.0215546e-02 6.3903160e-02 -1.5046102e-03 
6.9297679e-02 6.2713787e-02 -1.1055327e-04 
6.9160253e-02 6.2766232e-02 -1.2031001e-03 
6.9763362e-02 6.3315459e-02 -8.1302255e-04 
6.9675207e-02 6.3290313e-02 -1.1817738e-03 
6.8989605e-02 6.2535301e-02 -8.8459178e-04 
6.9399357e-02 6.2874243e-02 -4.2797322e-04 
6.8997405e-02 6.2419515e-02 -1.8575579e-04 
6.9279030e-02 6.2888011e-02 -1.2062419e-03 
6.8711303e-02 6.2184684e-02 -5.1292672e-04 
6.9022492e-02 6.2446751e-02 -1.9433977e-04 
6.8877883e-02 6.2490474e-02 -1.2827879e-03 
6.8525657e-02 6.1942253e-02 -2.1688129e-04 
6.8466768e-02 6.1992988e-02 -8.4596954e-04 
6.8638213e-02 6.2037516e-02 -1.0426710e-04 
6.8495102e-02 6.2085535e-02 -1.2085022e-03 
6.9359645e-02 6.3025258e-02 -1.5095995e-03 
6.8380825e-02 6.1873280e-02 -6.6731649e-04 
6.8738386e-02 6.2194675e-02 -4.1239781e-04 
6.8611182e-02 6.2204700e-02 -1.2139052e-03 
6.8201691e-02 6.1662983e-02 -5.1075447e-04 
6.8366542e-02 6.1774448e-02 -1.8549009e-04 
6.8830855e-02 6.2438577e-02 -1.2620141e-03 
6.8854123e-02 6.2421955e-02 -1.0317293e-03 
6.8098962e-02 6.1499368e-02 -1.7971593e-04 
6.8216674e-02 6.1813693e-02 -1.2880656e-03 
6.8019614e-02 6.1548963e-02 -9.2481653e-04 
6.8614125e-02 6.2111501e-02 -6.6476536e-04 
6.8485670e-02 6.2068403e-02 -1.1707493e-03 
6.7987762e-02 6.1371662e-02 -9.8398770e-05 
6.7841098e-02 6.1416179e-02 -1.2124589e-03 
6.7695640e-02 6.1144978e-02 -5.0830713e-04 
6.8086788e-02 6.1525222e-02 -3.9717316e-04 
6.7954414e-02 6.1533272e-02 -1.2210050e-03 
6.8504289e-02 6.2148478e-02 -1.5139963e-03 
6.7543149e-02 6.0928747e-02 -1.6413520e-04 
6.7462273e-02 6.0979769e-02 -9.2945079e-04 
6.7720152e-02 6.1111692e-02 -1.7663511e-04 
6.7566350e-02 6.1148897e-02 -1.2931769e-03 
6.7192808e-02 6.0630430e-02 -5.0584652e-04 
6.7977615e-02 6.1565287e-02 -1.2663841e-03 
6.8000324e-02 6.1548583e-02 -1.0365294e-03 
6.7346878e-02 6.0715400e-02 -9.1972965e-05 
6.7197010e-02 6.0758278e-02 -1.2167406e-03 
6.7444332e-02 6.0865846e-02 -3.8244468e-04 
6.6922352e-02 6.0425770e-02 -9.1762544e-04 
6.7232661e-02 6.0798708e-02 -1.2429933e-03 
6.7448035e-02 6.0915653e-02 -6.4677367e-04 
6.6904798e-02 6.0275879e-02 -1.6011819e-04 
6.7082576e-02 6.0459062e-02 -1.6805062e-04 
6.6926159e-02 6.0494579e-02 -1.2974426e-03 
6.6692702e-02 6.0119525e-02 -5.0343026e-04 
6.7650951e-02 6.1274704e-02 -1.5175183e-03 
6.6614702e-02 6.0063288e-02 -6.4122939e-04 
6.6714674e-02 6.0069416e-02 -8.5916799e-05 
6.7046106e-02 6.0595941e-02 -1.1739505e-03 
6.6469789e-02 5.9950326e-02 -8.4071129e-04 
6.6562675e-02 6.0110152e-02 -1.2204753e-03 
6.6510990e-02 5.9882581e-02 -2.0808494e-04 
6.6810794e-02 6.0216423e-02 -3.6801389e-04 
6.7126058e-02 6.0694538e-02 -1.2698560e-03 
6.7148395e-02 6.0677748e-02 -1.0403075e-03 
6.6670977e-02 6.0222577e-02 -1.2339625e-03 
6.6334531e-02 5.9689082e-02 -1.2937108e-04 
6.6195898e-02 5.9612274e-02 -5.0114054e-04 
6.6453874e-02 5.9816245e-02 -1.5920680e-04 
6.6295423e-02 5.9850700e-02 -1.3013370e-03 
6.6088870e-02 5.9452895e-02 -2.1217532e-04 
6.5968342e-02 5.9442535e-02 -8.6461351e-04 
6.6091128e-02 5.9432201e-02 -7.9937920e-05 
6.5937757e-02 5.9472892e-02 -1.2236008e-03 
6.6798806e-02 6.0403574e-02 -1.5206751e-03 
6.6185661e-02 5.9576362e-02 -3.5401617e-04 
6.5702155e-02 5.9108350e-02 -4.9870345e-04 
6.5971054e-02 5.9511315e-02 -1.2539953e-03 
6.5688521e-02 5.9033252e-02 -1.4548693e-04 
6.6192202e-02 5.9636723e-02 -6.6802738e-04 
6.5833472e-02 5.9182413e-02 -1.5097333e-04 
6.5711461e-02 5.9122268e-02 -5.2710442e-04 
6.5512151e-02 5.8988605e-02 -9.3119423e-04 
6.6275738e-02 5.9826236e-02 -1.2731525e-03 
6.5674148e-02 5.9216909e-02 -1.3048408e-03 
6.6297658e-02 5.9809405e-02 -1.0440385e-03 
6.5475717e-02 5.8804717e-02 -7.4435848e-05 
6.5790839e-02 5.9313361e-02 -1.1724845e-03 