# vtk DataFile Version 4.0
vtk output
ASCII
DATASET UNSTRUCTURED_GRID
POINTS 4496 float
-4.3633327e-01 9.6409470e-01 4.4200001e+01 
-4.3633258e-01 9.6409065e-01 4.4074627e+01 
-3.2152572e-01 9.1279918e-01 4.4200001e+01 
-3.8534868e-01 8.4052670e-01 4.4200001e+01 
-3.9589554e-01 8.5545403e-01 4.4010014e+01 
-3.2616228e-01 9.1667932e-01 4.4011734e+01 
-4.3633190e-01 9.6408653e-01 4.3948376e+01 
-2.1293370e-01 8.4677851e-01 4.4200001e+01 
-2.9042658e-01 7.3813015e-01 4.4200001e+01 
-2.1010752e-01 8.4669363e-01 4.4073502e+01 
-2.8908840e-01 7.3604190e-01 4.4072292e+01 
-3.9589015e-01 8.5505831e-01 4.3883316e+01 
-3.2487559e-01 9.1697580e-01 4.3885036e+01 
-2.0722924e-01 8.4660655e-01 4.3944645e+01 
-1.1981077e-01 7.7773046e-01 4.4200001e+01 
-2.8772619e-01 7.3391593e-01 4.3942276e+01 
-4.3633121e-01 9.6408242e-01 4.3821228e+01 
-1.9739023e-01 6.6468561e-01 4.4200001e+01 
-2.9444304e-01 7.8727525e-01 4.3879974e+01 
-8.7554991e-02 7.5255024e-01 4.4042213e+01 
-1.6445170e-01 6.4084798e-01 4.4041008e+01 
-3.2357255e-01 9.1726828e-01 4.3757431e+01 
-3.9587301e-01 8.5463828e-01 4.3755711e+01 
-2.0429766e-01 8.4651643e-01 4.3813354e+01 
-2.8633916e-01 7.3175091e-01 4.3809875e+01 
-2.6899619e-02 6.8901783e-01 4.4200001e+01 
-1.0567340e-01 7.7152997e-01 4.3875790e+01 
-4.3633053e-01 9.6407831e-01 4.3693161e+01 
-8.7133333e-02 5.9509218e-01 4.4200001e+01 
-1.8777622e-01 6.5475601e-01 4.3873402e+01 
-2.0131156e-01 8.4642249e-01 4.3679543e+01 
-3.2225290e-01 9.1755641e-01 4.3628902e+01 
-3.9584404e-01 8.5419410e-01 4.3627178e+01 
-1.0114321e-03 6.6670936e-01 4.3939713e+01 
-2.8492665e-01 7.2954547e-01 4.3675007e+01 
-1.0131179e-01 7.7015632e-01 4.3743176e+01 
-6.0682178e-02 5.7631296e-01 4.3938457e+01 
3.9444737e-02 6.2338209e-01 4.4053139e+01 
-1.8470748e-01 6.5131217e-01 4.3739727e+01 
-7.0938184e-03 5.4737431e-01 4.4052326e+01 
-4.3632981e-01 9.6407413e-01 4.3564159e+01 
7.6947339e-02 5.8804804e-01 4.4200001e+01 
-1.2721874e-02 6.8194175e-01 4.3817982e+01 
-7.7214435e-02 5.8474159e-01 4.3819649e+01 
4.0195532e-02 5.2425718e-01 4.4200001e+01 
-1.9826968e-01 8.4632379e-01 4.3543118e+01 
-9.6842363e-02 7.6872379e-01 4.3607994e+01 
-3.2091641e-01 9.1783977e-01 4.3499420e+01 
-3.9580306e-01 8.5372573e-01 4.3497700e+01 
-2.8348783e-01 7.2729832e-01 4.3537586e+01 
-1.8155001e-01 6.4778340e-01 4.3603539e+01 
1.5678726e-01 5.2239102e-01 4.4060219e+01 
1.0298219e-02 6.6009766e-01 4.3674484e+01 
1.3250886e-01 4.7546524e-01 4.4058990e+01 
-4.3632913e-01 9.6407002e-01 4.3434200e+01 
-5.0139543e-02 5.6696451e-01 4.3671154e+01 
1.3504514e-01 5.4209155e-01 4.3856747e+01 
1.0361936e-01 4.8715758e-01 4.3855240e+01 
2.0846681e-01 4.8028421e-01 4.4200001e+01 
1.9279444e-01 4.4799727e-01 4.4200001e+01 
-9.2261828e-02 7.6722860e-01 4.3470158e+01 
-1.4701239e-03 6.7547697e-01 4.3552124e+01 
-1.9517080e-01 8.4621930e-01 4.3403992e+01 
-3.1956279e-01 9.1811794e-01 4.3368977e+01 
-3.9574999e-01 8.5323322e-01 4.3367252e+01 
-1.7830023e-01 6.4416617e-01 4.3464752e+01 
-6.7131944e-02 5.7555372e-01 4.3547829e+01 
-2.8202194e-01 7.2500783e-01 4.3397518e+01 
-4.3632844e-01 9.6406585e-01 4.3303261e+01 
1.5138821e-01 5.3037512e-01 4.3609200e+01 
1.2119007e-01 4.7490793e-01 4.3606068e+01 
-8.7566733e-02 7.6566672e-01 4.3329563e+01 
-1.7495437e-01 6.4045686e-01 4.3323273e+01 
-3.1819177e-01 9.1839045e-01 4.3237537e+01 
-3.9568463e-01 8.5271639e-01 4.3235813e+01 
2.2269404e-02 6.5294570e-01 4.3398811e+01 
-1.9201367e-01 8.4610778e-01 4.3262066e+01 
-3.8899176e-02 5.5709696e-01 4.3393635e+01 
-2.8052819e-01 7.2267252e-01 4.3254715e+01 
3.7877345e-01 3.8273901e-01 4.4200001e+01 
-4.3632776e-01 9.6406174e-01 4.3171322e+01 
3.9241230e-01 3.7329337e-01 4.3965439e+01 
1.0283732e-02 6.6872352e-01 4.3271511e+01 
-5.6385640e-02 5.6585240e-01 4.3265472e+01 
-8.2753494e-02 7.6403379e-01 4.3186119e+01 
-4.0345609e-01 8.6371827e-01 4.3104889e+01 
-3.1680310e-01 9.1865683e-01 4.3105087e+01 
-1.7150842e-01 6.3665158e-01 4.3179005e+01 
-1.8879703e-01 8.4598809e-01 4.3117241e+01 
-2.7900568e-01 7.2029078e-01 4.3109074e+01 
4.0610775e-01 3.6380205e-01 4.3729839e+01 
1.6776134e-01 5.1882964e-01 4.3331150e+01 
-4.3632707e-01 9.6405768e-01 4.3038357e+01 
1.4031014e-01 4.6124566e-01 4.3307755e+01 
3.4952711e-02 6.4519531e-01 4.3111935e+01 
-7.7818394e-02 7.6232505e-01 4.3039719e+01 
-3.1539652e-01 9.1891652e-01 4.2971603e+01 
-3.9551663e-01 8.5160977e-01 4.2969879e+01 
-2.6899155e-02 5.4666573e-01 4.3105160e+01 
-1.6795819e-01 6.3274628e-01 4.3031849e+01 
-1.8551964e-01 8.4585863e-01 4.2969406e+01 
4.1985780e-01 3.5425979e-01 4.3493168e+01 
-2.7745360e-01 7.1786088e-01 4.2960495e+01 
-4.3632638e-01 9.6405357e-01 4.2904346e+01 
2.2723136e-02 6.6139150e-01 4.2979332e+01 
-4.4916678e-02 5.5559248e-01 4.2971806e+01 
-3.1397179e-01 9.1916907e-01 4.2837063e+01 
-3.9541367e-01 8.5101974e-01 4.2835335e+01 
-7.2757579e-02 7.6053542e-01 4.2890255e+01 
-1.6429928e-01 6.2873662e-01 4.2881699e+01 
1.8463810e-01 5.0694346e-01 4.3035332e+01 
-1.8218029e-01 8.4571803e-01 4.2818455e+01 
1.5503895e-01 4.5003417e-01 4.3027725e+01 
-2.7587104e-01 7.1538109e-01 4.2808868e+01 
4.3366045e-01 3.4466109e-01 4.3255390e+01 
-4.3632573e-01 9.6404958e-01 4.2769268e+01 
-3.8429454e-01 8.3484912e-01 4.2710606e+01 
-3.1252861e-01 9.1941386e-01 4.2701439e+01 
4.8404284e-02 6.3678014e-01 4.2813030e+01 
-1.4070326e-02 5.3562075e-01 4.2804932e+01 
-6.7567028e-02 7.5865942e-01 4.2737610e+01 
-1.6052702e-01 6.2461799e-01 4.2728443e+01 
-1.7877772e-01 8.4556442e-01 4.2664265e+01 
-4.3632504e-01 9.6404558e-01 4.2633099e+01 
-2.7425703e-01 7.1284944e-01 4.2654083e+01 
4.4751364e-01 3.3500037e-01 4.3016472e+01 
3.5901129e-02 6.5341437e-01 4.2674721e+01 
-3.7959340e-01 8.2794034e-01 4.2568317e+01 
-3.1106678e-01 9.1965032e-01 4.2564713e+01 
-3.2659348e-02 5.4472327e-01 4.2665997e+01 
2.0396979e-01 4.9291667e-01 4.2740131e+01 
-6.2242586e-02 7.5669110e-01 4.2581669e+01 
1.7765003e-01 4.3475360e-01 4.2732578e+01 
-1.5663649e-01 6.2038553e-01 4.2571964e+01 
-4.3632439e-01 9.6404165e-01 4.2495808e+01 
-1.7531081e-01 8.4539592e-01 4.2506718e+01 
-2.7261066e-01 7.1026409e-01 4.2496017e+01 
-3.0958602e-01 9.1987789e-01 4.2426853e+01 
-3.7859210e-01 8.2613736e-01 4.2421188e+01 
4.6141517e-01 3.2527190e-01 4.2776375e+01 
6.2686495e-02 6.2762415e-01 4.2501175e+01 
-3.3570320e-04 5.2390522e-01 4.2492062e+01 
-5.6779940e-02 7.5462401e-01 4.2422298e+01 
-4.3632373e-01 9.6403772e-01 4.2357380e+01 
-1.5262254e-01 6.1603409e-01 4.2412144e+01 
-1.7177837e-01 8.4521037e-01 4.2345684e+01 
-2.7093092e-01 7.0762289e-01 4.2334549e+01 
-3.0808610e-01 9.2009580e-01 4.2287842e+01 
-3.8275370e-01 8.3137155e-01 4.2275047e+01 
4.9876589e-02 6.4471585e-01 4.2356720e+01 
-1.9539909e-02 5.3318781e-01 4.2347118e+01 
-4.3632311e-01 9.6403396e-01 4.2217781e+01 
2.1959943e-01 4.8236796e-01 4.2385345e+01 
-5.1174615e-02 7.5245124e-01 4.2259373e+01 
1.9034323e-01 4.2346162e-01 4.2378918e+01 
-1.4847966e-01 6.1155808e-01 4.2248856e+01 
4.7536272e-01 3.1546980e-01 4.2535065e+01 
-1.6817927e-01 8.4500539e-01 4.2181026e+01 
-2.6921678e-01 7.0492369e-01 4.2169544e+01 
-3.0656675e-01 9.2030340e-01 4.2147648e+01 
-3.9470181e-01 8.4769493e-01 4.2145920e+01 
7.7868804e-02 6.1763972e-01 4.2175373e+01 
-4.3632248e-01 9.6403021e-01 4.2076988e+01 
1.4390758e-02 5.1145434e-01 4.2165581e+01 
-4.5421973e-02 7.5016522e-01 4.2092751e+01 
-1.4420210e-01 6.0695171e-01 4.2081959e+01 
-3.0502778e-01 9.2049998e-01 4.2006248e+01 
-4.0175444e-01 8.5747409e-01 4.2004128e+01 
-1.6451253e-01 8.4477836e-01 4.2012604e+01 
4.8935395e-01 3.0558801e-01 4.2292507e+01 
-2.6746723e-01 7.0216429e-01 4.2000870e+01 
6.4714879e-02 6.3520777e-01 4.2024277e+01 
-4.3632188e-01 9.6402657e-01 4.1934975e+01 
-5.4755262e-03 5.2092212e-01 4.2014156e+01 
-2.3078828e-01 8.1064087e-01 4.1931458e+01 
2.3550548e-01 4.7116494e-01 4.2073269e+01 
2.0610523e-01 4.1123796e-01 4.2066772e+01 
-3.9517213e-02 7.4775779e-01 4.1922287e+01 
-1.3978374e-01 6.0220873e-01 4.1911320e+01 
-3.0346894e-01 9.2068475e-01 4.1863613e+01 
-3.9432141e-01 8.4618556e-01 4.1861881e+01 
-1.6077711e-01 8.4452641e-01 4.1840263e+01 
-2.6568118e-01 6.9934219e-01 4.1828377e+01 
-4.3632129e-01 9.6402299e-01 4.1791718e+01 
5.0338638e-01 2.9562023e-01 4.2048656e+01 
9.4028555e-02 6.0672593e-01 4.1834507e+01 
3.0205652e-02 4.9819478e-01 4.1824417e+01 
-3.8116732e-01 8.2744831e-01 4.1725647e+01 
-3.0189002e-01 9.2085695e-01 4.1719719e+01 
-3.3455357e-02 7.4522001e-01 4.1747829e+01 
-1.3521814e-01 5.9732240e-01 4.1736786e+01 
-4.3632072e-01 9.6401960e-01 4.1647179e+01 
-1.5697217e-01 8.4424627e-01 4.1663853e+01 
-2.6385748e-01 6.9645494e-01 4.1651920e+01 
8.0488607e-02 6.2478805e-01 4.1676235e+01 
2.6870471e-01 4.4547972e-01 4.1752304e+01 
9.6269641e-03 5.0785345e-01 4.1665993e+01 
2.4764967e-01 3.8646612e-01 4.1743168e+01 
-3.0029076e-01 9.2101562e-01 4.1574532e+01 
-3.9388368e-01 8.4456980e-01 4.1572796e+01 
5.1745731e-01 2.8556010e-01 4.1803486e+01 
-2.7231261e-02 7.4254233e-01 4.1569210e+01 
-1.3049847e-01 5.9228569e-01 4.1558201e+01 
-4.3632016e-01 9.6401632e-01 4.1501339e+01 
-1.5309690e-01 8.4393430e-01 4.1483204e+01 
-2.6199502e-01 6.9349992e-01 4.1471333e+01 
-2.9867104e-01 9.2115986e-01 4.1428024e+01 
-3.9364263e-01 8.4372103e-01 4.1426289e+01 
1.1125199e-01 5.9476525e-01 4.1477348e+01 
4.7217656e-02 4.8404291e-01 4.1467384e+01 
-4.3631962e-01 9.6401310e-01 4.1354160e+01 
-2.0839609e-02 7.3971421e-01 4.1386261e+01 
-1.2561750e-01 5.8709091e-01 4.1375404e+01 
5.3156406e-01 2.7540097e-01 4.1556946e+01 
-1.4915068e-01 8.4358656e-01 4.1298138e+01 
-2.9703063e-01 9.2128879e-01 4.1280167e+01 
-3.9338648e-01 8.4284443e-01 4.1278431e+01 
-2.6009262e-01 6.9047421e-01 4.1286449e+01 
2.9365057e-01 4.2687622e-01 4.1391586e+01 
9.7278498e-02 6.1333776e-01 4.1311302e+01 
2.7470219e-01 3.6807936e-01 4.1382729e+01 
2.5872495e-02 4.9389899e-01 4.1301384e+01 
-4.3631911e-01 9.6401012e-01 4.1205620e+01 
-1.4274905e-02 7.3672432e-01 4.1198803e+01 
-1.2056758e-01 5.8173001e-01 4.1188221e+01 
-2.9536936e-01 9.2140132e-01 4.1130928e+01 
[...]
POINT_DATA 4496
FIELD FieldData 5
DISPLACEMENT 3 4496  float
5.9913200e-01 5.4899275e-01 -1.2611287e-02 
5.9564954e-01 5.4547596e-01 -1.2513458e-02 
5.9916323e-01 5.4909271e-01 -1.4366508e-02 
5.9929448e-01 5.4907686e-01 -1.0566646e-02 
5.9399927e-01 5.4373443e-01 -1.0543539e-02 
5.9392977e-01 5.4380697e-01 -1.4199527e-02 
5.9214264e-01 5.4193461e-01 -1.2414937e-02 
5.9921855e-01 5.4919422e-01 -1.5536321e-02 
5.9940875e-01 5.4918313e-01 -1.0337044e-02 
5.9570378e-01 5.4564786e-01 -1.5513922e-02 
5.9586388e-01 5.4560256e-01 -1.0216193e-02 
5.9048057e-01 5.4018074e-01 -1.0433841e-02 
5.9040958e-01 5.4025388e-01 -1.4144826e-02 
5.9212357e-01 5.4203540e-01 -1.5491040e-02 
5.9928435e-01 5.4928619e-01 -1.6191153e-02 
5.9225500e-01 5.4195738e-01 -1.0093203e-02 
5.8861095e-01 5.3836817e-01 -1.2315688e-02 
5.9948105e-01 5.4927677e-01 -1.0866236e-02 
5.9044844e-01 5.4018414e-01 -1.1352991e-02 
5.9492612e-01 5.4489249e-01 -1.6259562e-02 
5.9508699e-01 5.4484916e-01 -1.0990319e-02 
5.8686435e-01 5.3667551e-01 -1.4089657e-02 
5.8693677e-01 5.3660172e-01 -1.0323141e-02 
5.8847576e-01 5.3835469e-01 -1.5467610e-02 
5.8857995e-01 5.3824538e-01 -9.9679753e-03 
5.9937924e-01 5.4938579e-01 -1.6289070e-02 
5.9028238e-01 5.4020405e-01 -1.6157744e-02 
5.8505392e-01 5.3477621e-01 -1.2215659e-02 
5.9954107e-01 5.4938090e-01 -1.1982145e-02 
5.9041983e-01 5.4012603e-01 -1.0600851e-02 
5.8475798e-01 5.3460348e-01 -1.5443559e-02 
5.8329356e-01 5.3307128e-01 -1.4034066e-02 
5.8336753e-01 5.3299701e-01 -1.0211443e-02 
5.9217185e-01 5.4211104e-01 -1.6180947e-02 
5.8483654e-01 5.3446442e-01 -9.8405229e-03 
5.8659917e-01 5.3648776e-01 -1.6137056e-02 
5.9229332e-01 5.4207003e-01 -1.1987630e-02 
5.9537077e-01 5.4533803e-01 -1.6180333e-02 
5.8671051e-01 5.3637993e-01 -1.0485637e-02 
5.9547836e-01 5.4531288e-01 -1.2755625e-02 
5.8147109e-01 5.3115833e-01 -1.2114944e-02 
5.9948802e-01 5.4949790e-01 -1.6347595e-02 
5.8877254e-01 5.3868210e-01 -1.6187193e-02 
5.8898699e-01 5.3872246e-01 -1.1671552e-02 
5.9959632e-01 5.4949749e-01 -1.3537980e-02 
5.8096796e-01 5.3077942e-01 -1.5418794e-02 
5.8284485e-01 5.3269970e-01 -1.6115647e-02 
5.7969666e-01 5.2944100e-01 -1.3978014e-02 
5.7977211e-01 5.2936602e-01 -1.0098657e-02 
5.8102244e-01 5.3061211e-01 -9.7107003e-03 
5.8293176e-01 5.3256375e-01 -1.0368597e-02 
5.9567106e-01 5.4565805e-01 -1.6619036e-02 
5.8480990e-01 5.3468144e-01 -1.6103351e-02 
5.9571546e-01 5.4562515e-01 -1.4627874e-02 
5.7786196e-01 5.2751392e-01 -1.2013329e-02 
5.8487779e-01 5.3458291e-01 -1.1810714e-02 
5.8999813e-01 5.3992712e-01 -1.6407840e-02 
5.9004933e-01 5.3988469e-01 -1.3993325e-02 
5.9959614e-01 5.4963207e-01 -1.6985212e-02 
5.9964985e-01 5.4963386e-01 -1.5644521e-02 
5.7901704e-01 5.2883762e-01 -1.6093438e-02 
5.8139336e-01 5.3123528e-01 -1.6111499e-02 
5.7710326e-01 5.2688009e-01 -1.5393284e-02 
5.7607317e-01 5.2578396e-01 -1.3921450e-02 
5.7615024e-01 5.2570844e-01 -9.9848919e-03 
5.7908112e-01 5.2867508e-01 -1.0249866e-02 
5.8144629e-01 5.3110886e-01 -1.1483048e-02 
5.7713526e-01 5.2668619e-01 -9.5785540e-03 
5.7422608e-01 5.2384275e-01 -1.1910995e-02 
5.8313257e-01 5.3299856e-01 -1.6340911e-02 
5.8313876e-01 5.3291184e-01 -1.3944535e-02 
5.7511324e-01 5.2489895e-01 -1.6070267e-02 
5.7515603e-01 5.2471161e-01 -1.0129154e-02 
5.7242274e-01 5.2209985e-01 -1.3864342e-02 
5.7250136e-01 5.2202386e-01 -9.8699834e-03 
5.7715923e-01 5.2696073e-01 -1.6020630e-02 
5.7316118e-01 5.2290285e-01 -1.5366873e-02 
5.7717973e-01 5.2681112e-01 -1.1631072e-02 
5.7317257e-01 5.2268422e-01 -9.4440114e-03 
5.9967422e-01 5.4978913e-01 -1.8987691e-02 
5.7056284e-01 5.2014416e-01 -1.1808003e-02 
5.9316671e-01 5.4322147e-01 -1.8919334e-02 
5.7360572e-01 5.2337664e-01 -1.6029915e-02 
5.7361442e-01 5.2320194e-01 -1.1290876e-02 
5.7113087e-01 5.2088118e-01 -1.6046034e-02 
5.6885332e-01 5.1834428e-01 -9.8604811e-03 
5.6874454e-01 5.1838791e-01 -1.3806930e-02 
5.7115442e-01 5.2067083e-01 -1.0006749e-02 
5.6913924e-01 5.1884538e-01 -1.5339393e-02 
5.6913185e-01 5.1860374e-01 -9.3067633e-03 
5.8663023e-01 5.3662461e-01 -1.8850360e-02 
5.7542038e-01 5.2521580e-01 -1.6255870e-02 
5.6687176e-01 5.1641762e-01 -1.1704308e-02 
5.7486558e-01 5.2456355e-01 -1.3861392e-02 
5.6919980e-01 5.1892900e-01 -1.5931968e-02 
5.6706721e-01 5.1678169e-01 -1.6020605e-02 
5.6503874e-01 5.1464826e-01 -1.3748710e-02 
5.6512040e-01 5.1457101e-01 -9.6373959e-03 
5.6917965e-01 5.1873541e-01 -1.1448785e-02 
5.6707305e-01 5.1655018e-01 -9.8821875e-03 
5.6503469e-01 5.1470464e-01 -1.5310871e-02 
5.8006418e-01 5.2999771e-01 -1.8780420e-02 
5.6501037e-01 5.1444197e-01 -9.1672512e-03 
5.6315267e-01 5.1266289e-01 -1.1599456e-02 
5.6549990e-01 5.1519769e-01 -1.5941802e-02 
5.6547153e-01 5.1498222e-01 -1.1095100e-02 
5.6130415e-01 5.1087993e-01 -1.3690028e-02 
5.6138778e-01 5.1080251e-01 -9.5197512e-03 
5.6291956e-01 5.1259768e-01 -1.5993824e-02 
5.6291008e-01 5.1234710e-01 -9.7560436e-03 
5.6721705e-01 5.1693785e-01 -1.6161209e-02 
5.6084454e-01 5.1047790e-01 -1.5281023e-02 
5.6710035e-01 5.1672691e-01 -1.3739283e-02 
5.6080574e-01 5.1019692e-01 -9.0251071e-03 
5.7346851e-01 5.2334154e-01 -1.8709686e-02 
5.5940479e-01 5.0887990e-01 -1.1494121e-02 
5.5794668e-01 5.0732380e-01 -9.2798276e-03 
5.5754101e-01 5.0708336e-01 -1.3630597e-02 
5.6091034e-01 5.1056540e-01 -1.5836354e-02 
5.6085706e-01 5.1033574e-01 -1.1264145e-02 
5.5868477e-01 5.0832647e-01 -1.5965663e-02 
5.5866182e-01 5.0805891e-01 -9.6275136e-03 
5.5656654e-01 5.0616324e-01 -1.5249943e-02 
5.5562794e-01 5.0506783e-01 -1.1387765e-02 
5.5651450e-01 5.0586450e-01 -8.8799652e-03 
5.6684273e-01 5.1665539e-01 -1.8637452e-02 
5.5705386e-01 5.0667685e-01 -1.5846185e-02 
5.5400866e-01 5.0334686e-01 -9.1071893e-03 
5.5374849e-01 5.0325733e-01 -1.3570275e-02 
5.5699617e-01 5.0642890e-01 -1.0895791e-02 
5.5903649e-01 5.0868481e-01 -1.6075389e-02 
5.5436051e-01 5.0396490e-01 -1.5936160e-02 
5.5892158e-01 5.0847834e-01 -1.3711217e-02 
5.5432606e-01 5.0368273e-01 -9.4976490e-03 
5.5182147e-01 5.0122619e-01 -1.1280093e-02 
5.5219656e-01 5.0175607e-01 -1.5217717e-02 
5.5213422e-01 5.0144333e-01 -8.7324753e-03 
5.4992574e-01 4.9940154e-01 -1.3509435e-02 
5.4993206e-01 4.9923241e-01 -8.9715319e-03 
5.6018794e-01 5.0994122e-01 -1.8563714e-02 
5.5226779e-01 5.0184715e-01 -1.5732614e-02 
5.5218965e-01 5.0159025e-01 -1.1077042e-02 
5.4994303e-01 4.9951011e-01 -1.5904447e-02 
5.4798478e-01 4.9735504e-01 -1.1172009e-02 
5.4989922e-01 4.9921560e-01 -9.3651935e-03 
5.4773211e-01 4.9725449e-01 -1.5183630e-02 
5.4766160e-01 4.9692971e-01 -8.5821413e-03 
5.4607302e-01 4.9551609e-01 -1.3447749e-02 
5.4587656e-01 4.9514225e-01 -8.8902190e-03 
5.4824346e-01 4.9779022e-01 -1.5741419e-02 
5.4816562e-01 4.9751964e-01 -1.0693009e-02 
5.4411781e-01 4.9345428e-01 -1.1063117e-02 
5.4920554e-01 4.9876752e-01 -1.5937917e-02 
5.4542929e-01 4.9495915e-01 -1.5870718e-02 
5.4912353e-01 4.9859127e-01 -1.3474913e-02 
5.4537863e-01 4.9465492e-01 -9.2309890e-03 
5.5350047e-01 5.0319463e-01 -1.8487837e-02 
5.4316980e-01 4.9265501e-01 -1.5147782e-02 
5.4309338e-01 4.9232069e-01 -8.4290281e-03 
5.4218978e-01 4.9160072e-01 -1.3385144e-02 
5.4228121e-01 4.9152091e-01 -8.9151701e-03 
5.4324746e-01 4.9275061e-01 -1.5619855e-02 
5.4022002e-01 4.8952264e-01 -1.0953657e-02 
5.4315335e-01 4.9247584e-01 -1.0888365e-02 
5.4081595e-01 4.9030867e-01 -1.5834898e-02 
5.4076135e-01 4.8999712e-01 -9.0941777e-03 
5.3827459e-01 4.8765329e-01 -1.3322813e-02 
5.3834468e-01 4.8755383e-01 -8.8843368e-03 
5.3850585e-01 4.8795414e-01 -1.5109794e-02 
5.4678303e-01 4.9641883e-01 -1.8410126e-02 
5.3842694e-01 4.8761362e-01 -8.2725324e-03 
5.3904361e-01 4.8851439e-01 -1.5626794e-02 
5.3629005e-01 4.8555946e-01 -1.0843812e-02 
5.3895485e-01 4.8823079e-01 -1.0487202e-02 
5.3633565e-01 4.8565924e-01 -1.2258545e-02 
5.4056877e-01 4.9005857e-01 -1.5823089e-02 
5.4048604e-01 4.8988116e-01 -1.3331109e-02 
5.3609955e-01 4.8555577e-01 -1.5796874e-02 
5.3604341e-01 4.8523957e-01 -8.9552142e-03 
5.3432786e-01 4.8367515e-01 -1.3259422e-02 
5.3442234e-01 4.8359457e-01 -8.6671654e-03 
5.3373700e-01 4.8314887e-01 -1.5070539e-02 
5.3365785e-01 4.8280326e-01 -8.1125572e-03 
5.3232765e-01 4.8156404e-01 -1.0732321e-02 
5.4003638e-01 4.8961613e-01 -1.8330643e-02 
5.3382200e-01 4.8324969e-01 -1.5496725e-02 
5.3372216e-01 4.8296794e-01 -1.0697789e-02 
5.3067696e-01 4.7981215e-01 -8.4049441e-03 
5.3034848e-01 4.7966474e-01 -1.3194457e-02 
5.3127557e-01 4.8069486e-01 -1.5756480e-02 
5.3122061e-01 4.8037711e-01 -8.8136001e-03 
5.2833253e-01 4.7753632e-01 -1.0619246e-02 
5.2885926e-01 4.7823438e-01 -1.5028748e-02 
5.2878267e-01 4.7788790e-01 -7.9505956e-03 
5.2942532e-01 4.7882116e-01 -1.5500770e-02 
5.3171045e-01 4.8113307e-01 -1.5776878e-02 
5.2933544e-01 4.7853497e-01 -1.0277921e-02 
5.3155011e-01 4.8088741e-01 -1.3543761e-02 
5.2633560e-01 4.7562191e-01 -1.3128674e-02 
5.2643400e-01 4.7554010e-01 -8.4138205e-03 
5.3326190e-01 4.8278901e-01 -1.8248839e-02 
5.2634096e-01 4.7572386e-01 -1.5712934e-02 
5.2629083e-01 4.7540784e-01 -8.6712874e-03 
5.2430493e-01 4.7347766e-01 -1.0505700e-02 
5.2386838e-01 4.7320819e-01 -1.4983885e-02 
5.2379793e-01 4.7286394e-01 -7.7858153e-03 
5.2229041e-01 4.7154701e-01 -1.3061736e-02 
5.2239037e-01 4.7146618e-01 -8.2861511e-03 
5.2396137e-01 4.7331500e-01 -1.5360644e-02 
5.2386802e-01 4.7303906e-01 -1.0505460e-02 
5.2024370e-01 4.6938688e-01 -1.0392408e-02 
5.2129138e-01 4.7063947e-01 -1.5665954e-02 
5.2124900e-01 4.7032791e-01 -8.5252086e-03 
5.2645320e-01 4.7592819e-01 -1.8163035e-02 
5.1876116e-01 4.6806633e-01 -1.4936665e-02 
5.1821125e-01 4.6744025e-01 -1.2995013e-02 
5.1831156e-01 4.6735811e-01 -8.1569208e-03 
5.1869923e-01 4.6772698e-01 -7.6154806e-03 
5.2176082e-01 4.7111142e-01 -1.5669093e-02 
5.1935798e-01 4.6868095e-01 -1.5360722e-02 
5.2160692e-01 4.7087574e-01 -1.3505500e-02 
5.1928121e-01 4.6840635e-01 -1.0065906e-02 
5.1614785e-01 4.6526119e-01 -1.0277482e-02 
5.1612365e-01 4.6543601e-01 -1.5616827e-02 
5.1609057e-01 4.6513289e-01 -8.3768116e-03 
5.1409656e-01 4.6329713e-01 -1.2927094e-02 
5.1420015e-01 4.6321568e-01 -8.0272192e-03 
5.1353210e-01 4.6280318e-01 -1.4886403e-02 
5.1348323e-01 4.6247292e-01 -7.4437191e-03 
5.1961601e-01 4.6904218e-01 -1.8074794e-02 
5.1201707e-01 4.6110129e-01 -1.0162488e-02 
5.1363444e-01 4.6291652e-01 -1.5211617e-02 
5.1355857e-01 4.6265805e-01 -1.0311606e-02 
5.0994760e-01 4.5912194e-01 -1.2858434e-02 
5.1005155e-01 4.5903867e-01 -7.8963619e-03 
5.1083070e-01 4.6011016e-01 -1.5562307e-02 
5.1081342e-01 4.5981893e-01 -8.2272757e-03 
5.0785100e-01 4.5690757e-01 -1.0044977e-02 
5.0817823e-01 4.5741570e-01 -1.4832902e-02 
5.0814402e-01 4.5709875e-01 -7.2672889e-03 
5.1133788e-01 4.6061915e-01 -1.5557511e-02 
5.1120347e-01 4.6040645e-01 -1.3475957e-02 
5.0828385e-01 4.5753190e-01 -1.5128488e-02 
5.1275033e-01 4.6213055e-01 -1.7984217e-02 
5.0576288e-01 4.5491076e-01 -1.2786747e-02 
5.0586951e-01 4.5482937e-01 -7.7655423e-03 
5.0822270e-01 4.5728937e-01 -1.0214333e-02 
5.0541186e-01 4.5465761e-01 -1.5505182e-02 
5.0541061e-01 4.5438221e-01 -8.0740936e-03 
5.0365007e-01 4.5268101e-01 -9.9283624e-03 
5.0269288e-01 4.5189965e-01 -1.4776094e-02 
5.0268042e-01 4.5159972e-01 -7.0876894e-03 
5.0154358e-01 4.5066878e-01 -1.2715235e-02 
5.0165015e-01 4.5058513e-01 -7.6329666e-03 
5.0280482e-01 4.5201936e-01 -1.5043092e-02 
5.0105572e-01 4.5005608e-01 -9.4885500e-03 
5.0276202e-01 4.5179617e-01 -1.0117532e-02 
4.9941334e-01 4.4841990e-01 -9.8090144e-03 
5.0584865e-01 4.5518288e-01 -1.7888578e-02 
5.0279421e-01 4.5202008e-01 -1.5365811e-02 
4.9985912e-01 4.4907483e-01 -1.5440185e-02 
5.0275928e-01 4.5189878e-01 -1.2999116e-02 
4.9988061e-01 4.4881970e-01 -7.9188962e-03 
4.9728721e-01 4.4638899e-01 -1.2641115e-02 
4.9739596e-01 4.4630757e-01 -7.4991458e-03 
4.9707556e-01 4.4625261e-01 -1.4711832e-02 
4.9708420e-01 4.4597262e-01 -6.9078682e-03 
4.9514058e-01 4.4412458e-01 -9.6911313e-03 
4.9719107e-01 4.4637457e-01 -1.4953465e-02 
4.9716964e-01 4.4617519e-01 -1.0019963e-02 
4.9417078e-01 4.4335753e-01 -1.5373152e-02 
4.9299511e-01 4.4207504e-01 -1.2567690e-02 
4.9310464e-01 4.4199336e-01 -7.3642568e-03 
4.9421662e-01 4.4312659e-01 -7.7603492e-03 
4.9891844e-01 4.4821396e-01 -1.7792176e-02 
4.9131739e-01 4.4046697e-01 -1.4648113e-02 
4.9082986e-01 4.3979165e-01 -9.5712654e-03 
4.9513254e-01 4.4426569e-01 -1.3803913e-02 
4.9505490e-01 4.4425330e-01 -1.5615254e-02 
4.9135399e-01 4.4021344e-01 -6.7195077e-03 
4.9143788e-01 4.4059265e-01 -1.4858111e-02 
4.9144047e-01 4.4041818e-01 -9.9229179e-03 
4.8866358e-01 4.3772444e-01 -1.2493469e-02 
4.8877466e-01 4.3764240e-01 -7.2284746e-03 
4.8833883e-01 4.3749887e-01 -1.5300849e-02 
4.8841503e-01 4.3729669e-01 -7.6001384e-03 
4.8647934e-01 4.3542084e-01 -9.4502987e-03 
4.9195957e-01 4.4121844e-01 -1.7687934e-02 
4.8541155e-01 4.3453684e-01 -1.4579817e-02 
4.8548201e-01 4.3431416e-01 -6.5269531e-03 
4.8429665e-01 4.3334091e-01 -1.2413862e-02 
4.8440820e-01 4.3325689e-01 -7.0937271e-03 
4.8815951e-01 4.3726003e-01 -1.3685154e-02 
4.8808438e-01 4.3724969e-01 -1.5509875e-02 
4.8544836e-01 4.3457684e-01 -1.4756033e-02 
4.8543030e-01 4.3438277e-01 -9.7867223e-03 
4.8297837e-01 4.3192750e-01 -9.9542262e-03 
4.8209769e-01 4.3102244e-01 -9.3269395e-03 
4.8241106e-01 4.3154818e-01 -1.5225335e-02 
4.8255324e-01 4.3140924e-01 -7.3974952e-03 
4.7993138e-01 4.2895833e-01 -1.2293292e-02 
4.8004553e-01 4.2887849e-01 -6.9737928e-03 
4.7946152e-01 4.2856690e-01 -1.4502210e-02 
4.8497173e-01 4.3419841e-01 -1.7579885e-02 
4.7962904e-01 4.2843938e-01 -6.3402574e-03 
4.7775117e-01 4.2666107e-01 -9.2080738e-03 
4.7936848e-01 4.2847538e-01 -1.4667329e-02 
4.7951642e-01 4.2844224e-01 -9.5079616e-03 
4.8117635e-01 4.3024993e-01 -1.3577133e-02 
4.8110387e-01 4.3024155e-01 -1.5405163e-02 
4.7718102e-01 4.2610973e-01 -9.7950343e-03 
4.7560173e-01 4.2461595e-01 -1.2172947e-02 
4.7651607e-01 4.2563397e-01 -1.5149490e-02 
4.7571403e-01 4.2453295e-01 -6.8544745e-03 
4.7675219e-01 4.2558867e-01 -7.1769864e-03 
4.7343874e-01 4.2233506e-01 -9.0868138e-03 
4.7362253e-01 4.2271224e-01 -1.4423327e-02 
4.7387570e-01 4.2266902e-01 -6.1586369e-03 
4.7798881e-01 4.2718908e-01 -1.7467773e-02 
4.7353199e-01 4.2262352e-01 -1.4594131e-02 
4.7376966e-01 4.2267284e-01 -9.2257131e-03 
4.7130305e-01 4.2030489e-01 -1.2053897e-02 
4.7141686e-01 4.2022517e-01 -6.7369835e-03 
4.7401845e-01 4.2312142e-01 -1.4895181e-02 
4.7412810e-01 4.2314577e-01 -1.2432629e-02 
4.7072986e-01 4.1983557e-01 -1.5072530e-02 
4.7104657e-01 4.1986492e-01 -6.9614644e-03 
4.7002000e-01 4.1892999e-01 -9.5927920e-03 
4.6915939e-01 4.1804668e-01 -8.9686271e-03 
4.6821854e-01 4.1699794e-01 -5.9791110e-03 
4.6788737e-01 4.1696635e-01 -1.4342824e-02 
4.6703991e-01 4.1603163e-01 -1.1933181e-02 
4.6715412e-01 4.1595465e-01 -6.6218893e-03 
4.6811551e-01 4.1700310e-01 -8.9504952e-03 
4.6779874e-01 4.1688049e-01 -1.4523202e-02 
4.7102585e-01 4.2020941e-01 -1.7355511e-02 
4.6491331e-01 4.1379359e-01 -8.8531980e-03 
4.6543553e-01 4.1424024e-01 -6.7513627e-03 
4.6504536e-01 4.1414455e-01 -1.4994849e-02 
4.6718955e-01 4.1629362e-01 -1.5192134e-02 
4.6672529e-01 4.1573232e-01 -1.2444952e-02 
4.6280947e-01 4.1179517e-01 -1.1813839e-02 
4.6284446e-01 4.1164052e-01 -6.5500238e-03 
4.6265361e-01 4.1142094e-01 -5.7979161e-03 
4.6225646e-01 4.1132891e-01 -1.4266699e-02 
4.6108443e-01 4.0998673e-01 -9.5145246e-03 
4.6069837e-01 4.0957245e-01 -8.7351585e-03 
4.6255153e-01 4.1142559e-01 -8.6842105e-03 
4.6144810e-01 4.1051701e-01 -1.4293378e-02 
4.5991251e-01 4.0871072e-01 -6.5504005e-03 
4.5946383e-01 4.0855676e-01 -1.4915219e-02 
4.5860803e-01 4.0758777e-01 -1.1692244e-02 
4.6408945e-01 4.1326490e-01 -1.7242301e-02 
4.5872122e-01 4.0751258e-01 -6.3918247e-03 
4.5793343e-01 4.0682453e-01 -9.1852425e-03 
4.6038499e-01 4.0938586e-01 -1.2310694e-02 
4.5651537e-01 4.0538743e-01 -8.6202817e-03 
4.5717409e-01 4.0594035e-01 -5.6316694e-03 
4.5672426e-01 4.0579206e-01 -1.4181914e-02 
4.6026215e-01 4.0936151e-01 -1.5079253e-02 
4.5707926e-01 4.0594786e-01 -8.4216297e-03 
4.5663974e-01 4.0571147e-01 -1.4375501e-02 
4.5443928e-01 4.0341771e-01 -1.1574293e-02 
4.5455328e-01 4.0334338e-01 -6.2786401e-03 
4.5448050e-01 4.0327647e-01 -6.3495534e-03 
4.5398018e-01 4.0307191e-01 -1.4832607e-02 
4.5282206e-01 4.0168846e-01 -8.3594266e-03 
4.5236164e-01 4.0123463e-01 -8.5060634e-03 
4.5716533e-01 4.0633708e-01 -1.7121447e-02 
4.5178500e-01 4.0055156e-01 -5.4594357e-03 
4.5128691e-01 4.0035668e-01 -1.4100635e-02 
4.5410213e-01 4.0307337e-01 -1.1402983e-02 
4.5366901e-01 4.0274161e-01 -1.4296331e-02 
4.5029920e-01 3.9928052e-01 -1.1454763e-02 
4.5169336e-01 4.0055597e-01 -8.1672184e-03 
4.4997180e-01 3.9875478e-01 -5.9126713e-03 
4.5120436e-01 4.0027893e-01 -1.4304674e-02 
4.4823632e-01 3.9711210e-01 -8.3949734e-03 
4.4913214e-01 3.9792728e-01 -6.1506308e-03 
4.4859013e-01 3.9768571e-01 -1.4749366e-02 
4.4630545e-01 3.9510071e-01 -6.0576680e-03 
4.4612816e-01 3.9510086e-01 -1.1042065e-02 
4.4647977e-01 3.9524916e-01 -5.2922261e-03 
4.4593853e-01 3.9501551e-01 -1.4017645e-02 
4.5025864e-01 3.9942887e-01 -1.6995233e-02 
4.4491267e-01 3.9383894e-01 -9.6778870e-03 
4.4639152e-01 3.9525715e-01 -7.9199523e-03 
4.4585931e-01 3.9493889e-01 -1.4233857e-02 
4.4414294e-01 3.9302376e-01 -8.2859630e-03 
4.4386709e-01 3.9267126e-01 -5.9633791e-03 
4.4645980e-01 3.9556071e-01 -1.4838145e-02 
4.4652060e-01 3.9555806e-01 -1.3022108e-02 
4.4275677e-01 3.9154851e-01 -5.7042446e-03 
4.4328699e-01 3.9238623e-01 -1.4662764e-02 
4.4247615e-01 3.9147741e-01 -1.1600444e-02 
4.4502041e-01 3.9395654e-01 -9.9751074e-03 
4.4429600e-01 3.9336869e-01 -1.3948411e-02 
4.4125435e-01 3.9003271e-01 -5.1315664e-03 
4.4068626e-01 3.8977021e-01 -1.3921898e-02 
4.4008070e-01 3.8896739e-01 -8.1761535e-03 
4.4117063e-01 3.9003912e-01 -7.6796771e-03 
4.4060859e-01 3.8969660e-01 -1.4162132e-02 
4.4337225e-01 3.9254963e-01 -1.6860627e-02 
4.3824691e-01 3.8704488e-01 -5.4910304e-03 
4.3800277e-01 3.8701472e-01 -1.1535197e-02 
4.3868411e-01 3.8749287e-01 -5.7783509e-03 
4.3807784e-01 3.8719028e-01 -1.4577808e-02 
4.3604815e-01 3.8494280e-01 -8.0659688e-03 
4.3959248e-01 3.8870639e-01 -1.4709576e-02 
4.3965006e-01 3.8870186e-01 -1.2899740e-02 
4.3611214e-01 3.8489723e-01 -4.9675144e-03 
4.3551937e-01 3.8461885e-01 -1.3834970e-02 
4.3603110e-01 3.8490668e-01 -7.4444292e-03 
4.3368536e-01 3.8270327e-01 -1.1339359e-02 
4.3493801e-01 3.8404453e-01 -1.4181446e-02 
4.3567017e-01 3.8462064e-01 -9.6156476e-03 
4.3313634e-01 3.8194415e-01 -5.3458586e-03 
4.3357950e-01 3.8239911e-01 -5.5969660e-03 
4.3295506e-01 3.8208058e-01 -1.4486328e-02 
4.3204179e-01 3.8094860e-01 -7.9578562e-03 
4.3651319e-01 3.8570303e-01 -1.6719820e-02 
4.3078309e-01 3.7973404e-01 -9.1424035e-03 
4.3104428e-01 3.7984702e-01 -4.8116823e-03 
4.3269274e-01 3.8179308e-01 -1.3707431e-02 
4.3011779e-01 3.7912595e-01 -1.0633256e-02 
4.3043864e-01 3.7955031e-01 -1.3744185e-02 
4.3016830e-01 3.7899849e-01 -5.6322250e-03 
4.3096748e-01 3.7985587e-01 -7.2149416e-03 
4.3274915e-01 3.8187879e-01 -1.4575361e-02 
4.3280503e-01 3.8187259e-01 -1.2770634e-02 
4.3036562e-01 3.7948245e-01 -1.4013096e-02 
4.2843458e-01 3.7725303e-01 -5.0251824e-03 
4.2806584e-01 3.7698585e-01 -7.8520989e-03 
4.2855000e-01 3.7738708e-01 -5.4156235e-03 
4.2791495e-01 3.7705711e-01 -1.4395484e-02 
4.2680994e-01 3.7565529e-01 -5.5884761e-03 
4.2608917e-01 3.7511840e-01 -1.0735330e-02 
4.2605320e-01 3.7487000e-01 -4.6567726e-03 
4.2543808e-01 3.7457049e-01 -1.3653468e-02 
4.2967436e-01 3.7888393e-01 -1.6577840e-02 
4.2597842e-01 3.7488207e-01 -6.9914479e-03 
4.2411691e-01 3.7305257e-01 -7.7451337e-03 
4.2487594e-01 3.7401876e-01 -1.4022287e-02 
4.2338309e-01 3.7222552e-01 -5.0234022e-03 
4.2556998e-01 3.7456071e-01 -9.5633492e-03 
4.2359504e-01 3.7245032e-01 -5.2434420e-03 
4.2313212e-01 3.7208572e-01 -8.1370249e-03 
4.2239249e-01 3.7145650e-01 -1.1189457e-02 
4.2592493e-01 3.7508047e-01 -1.4438909e-02 
4.2295545e-01 3.7211779e-01 -1.4303468e-02 
4.2597854e-01 3.7507299e-01 -1.2640730e-02 
4.2113391e-01 3.6997437e-01 -4.5090765e-03 
4.2271301e-01 3.7184748e-01 -1.3447658e-02 