# vtk DataFile Version 4.0
vtk output
ASCII
DATASET UNSTRUCTURED_GRID
POINTS 4496 float
-4.3633327e-01 9.6409470e-01 4.4200001e+01 
-4.3633258e-01 9.6409065e-01 4.4074627e+01 
-3.2152572e-01 9.1279918e-01 4.4200001e+01 
-3.8534868e-01 8.4052670e-01 4.4200001e+01 
-3.9589554e-01 8.5545403e-01 4.4010014e+01 
-3.2616228e-01 9.1667932e-01 4.4011734e+01 
-4.3633190e-01 9.6408653e-01 4.3948376e+01 
-2.1293370e-01 8.4677851e-01 4.4200001e+01 
-2.9042658e-01 7.3813015e-01 4.4200001e+01 
-2.1010752e-01 8.4669363e-01 4.4073502e+01 
-2.8908840e-01 7.3604190e-01 4.4072292e+01 
-3.9589015e-01 8.5505831e-01 4.3883316e+01 
-3.2487559e-01 9.1697580e-01 4.3885036e+01 
-2.0722924e-01 8.4660655e-01 4.3944645e+01 
-1.1981077e-01 7.7773046e-01 4.4200001e+01 
-2.8772619e-01 7.3391593e-01 4.3942276e+01 
-4.3633121e-01 9.6408242e-01 4.3821228e+01 
-1.9739023e-01 6.6468561e-01 4.4200001e+01 
-2.9444304e-01 7.8727525e-01 4.3879974e+01 
-8.7554991e-02 7.5255024e-01 4.4042213e+01 
-1.6445170e-01 6.4084798e-01 4.4041008e+01 
-3.2357255e-01 9.1726828e-01 4.3757431e+01 
-3.9587301e-01 8.5463828e-01 4.3755711e+01 
-2.0429766e-01 8.4651643e-01 4.3813354e+01 
-2.8633916e-01 7.3175091e-01 4.3809875e+01 
-2.6899619e-02 6.8901783e-01 4.4200001e+01 
-1.0567340e-01 7.7152997e-01 4.3875790e+01 
-4.3633053e-01 9.6407831e-01 4.3693161e+01 
-8.7133333e-02 5.9509218e-01 4.4200001e+01 
-1.8777622e-01 6.5475601e-01 4.3873402e+01 
-2.0131156e-01 8.4642249e-01 4.3679543e+01 
-3.2225290e-01 9.1755641e-01 4.3628902e+01 
-3.9584404e-01 8.5419410e-01 4.3627178e+01 
-1.0114321e-03 6.6670936e-01 4.3939713e+01 
-2.8492665e-01 7.2954547e-01 4.3675007e+01 
-1.0131179e-01 7.7015632e-01 4.3743176e+01 
-6.0682178e-02 5.7631296e-01 4.3938457e+01 
3.9444737e-02 6.2338209e-01 4.4053139e+01 
-1.8470748e-01 6.5131217e-01 4.3739727e+01 
-7.0938184e-03 5.4737431e-01 4.4052326e+01 
-4.3632981e-01 9.6407413e-01 4.3564159e+01 
7.6947339e-02 5.8804804e-01 4.4200001e+01 
-1.2721874e-02 6.8194175e-01 4.3817982e+01 
-7.7214435e-02 5.8474159e-01 4.3819649e+01 
4.0195532e-02 5.2425718e-01 4.4200001e+01 
-1.9826968e-01 8.4632379e-01 4.3543118e+01 
-9.6842363e-02 7.6872379e-01 4.3607994e+01 
-3.2091641e-01 9.1783977e-01 4.3499420e+01 
-3.9580306e-01 8.5372573e-01 4.3497700e+01 
-2.8348783e-01 7.2729832e-01 4.3537586e+01 
-1.8155001e-01 6.4778340e-01 4.3603539e+01 
1.5678726e-01 5.2239102e-01 4.4060219e+01 
1.0298219e-02 6.6009766e-01 4.3674484e+01 
1.3250886e-01 4.7546524e-01 4.4058990e+01 
-4.3632913e-01 9.6407002e-01 4.3434200e+01 
-5.0139543e-02 5.6696451e-01 4.3671154e+01 
1.3504514e-01 5.4209155e-01 4.3856747e+01 
1.0361936e-01 4.8715758e-01 4.3855240e+01 
2.0846681e-01 4.8028421e-01 4.4200001e+01 
1.9279444e-01 4.4799727e-01 4.4200001e+01 
-9.2261828e-02 7.6722860e-01 4.3470158e+01 
-1.4701239e-03 6.7547697e-01 4.3552124e+01 
-1.9517080e-01 8.4621930e-01 4.3403992e+01 
-3.1956279e-01 9.1811794e-01 4.3368977e+01 
-3.9574999e-01 8.5323322e-01 4.3367252e+01 
-1.7830023e-01 6.4416617e-01 4.3464752e+01 
-6.7131944e-02 5.7555372e-01 4.3547829e+01 
-2.8202194e-01 7.2500783e-01 4.3397518e+01 
-4.3632844e-01 9.6406585e-01 4.3303261e+01 
1.5138821e-01 5.3037512e-01 4.3609200e+01 
1.2119007e-01 4.7490793e-01 4.3606068e+01 
-8.7566733e-02 7.6566672e-01 4.3329563e+01 
-1.7495437e-01 6.4045686e-01 4.3323273e+01 
-3.1819177e-01 9.1839045e-01 4.3237537e+01 
-3.9568463e-01 8.5271639e-01 4.3235813e+01 
2.2269404e-02 6.5294570e-01 4.3398811e+01 
-1.9201367e-01 8.4610778e-01 4.3262066e+01 
-3.8899176e-02 5.5709696e-01 4.3393635e+01 
-2.8052819e-01 7.2267252e-01 4.3254715e+01 
3.7877345e-01 3.8273901e-01 4.4200001e+01 
-4.3632776e-01 9.6406174e-01 4.3171322e+01 
3.9241230e-01 3.7329337e-01 4.3965439e+01 
1.0283732e-02 6.6872352e-01 4.3271511e+01 
-5.6385640e-02 5.6585240e-01 4.3265472e+01 
-8.2753494e-02 7.6403379e-01 4.3186119e+01 
-4.0345609e-01 8.6371827e-01 4.3104889e+01 
-3.1680310e-01 9.1865683e-01 4.3105087e+01 
-1.7150842e-01 6.3665158e-01 4.3179005e+01 
-1.8879703e-01 8.4598809e-01 4.3117241e+01 
-2.7900568e-01 7.2029078e-01 4.3109074e+01 
4.0610775e-01 3.6380205e-01 4.3729839e+01 
1.6776134e-01 5.1882964e-01 4.3331150e+01 
-4.3632707e-01 9.6405768e-01 4.3038357e+01 
1.4031014e-01 4.6124566e-01 4.3307755e+01 
3.4952711e-02 6.4519531e-01 4.3111935e+01 
-7.7818394e-02 7.6232505e-01 4.3039719e+01 
-3.1539652e-01 9.1891652e-01 4.2971603e+01 
-3.9551663e-01 8.5160977e-01 4.2969879e+01 
-2.6899155e-02 5.4666573e-01 4.3105160e+01 
-1.6795819e-01 6.3274628e-01 4.3031849e+01 
-1.8551964e-01 8.4585863e-01 4.2969406e+01 
4.1985780e-01 3.5425979e-01 4.3493168e+01 
-2.7745360e-01 7.1786088e-01 4.2960495e+01 
-4.3632638e-01 9.6405357e-01 4.2904346e+01 
2.2723136e-02 6.6139150e-01 4.2979332e+01 
-4.4916678e-02 5.5559248e-01 4.2971806e+01 
-3.1397179e-01 9.1916907e-01 4.2837063e+01 
-3.9541367e-01 8.5101974e-01 4.2835335e+01 
-7.2757579e-02 7.6053542e-01 4.2890255e+01 
-1.6429928e-01 6.2873662e-01 4.2881699e+01 
1.8463810e-01 5.0694346e-01 4.3035332e+01 
-1.8218029e-01 8.4571803e-01 4.2818455e+01 
1.5503895e-01 4.5003417e-01 4.3027725e+01 
-2.7587104e-01 7.1538109e-01 4.2808868e+01 
4.3366045e-01 3.4466109e-01 4.3255390e+01 
-4.3632573e-01 9.6404958e-01 4.2769268e+01 
-3.8429454e-01 8.3484912e-01 4.2710606e+01 
-3.1252861e-01 9.1941386e-01 4.2701439e+01 
4.8404284e-02 6.3678014e-01 4.2813030e+01 
-1.4070326e-02 5.3562075e-01 4.2804932e+01 
-6.7567028e-02 7.5865942e-01 4.2737610e+01 
-1.6052702e-01 6.2461799e-01 4.2728443e+01 
-1.7877772e-01 8.4556442e-01 4.2664265e+01 
-4.3632504e-01 9.6404558e-01 4.2633099e+01 
-2.7425703e-01 7.1284944e-01 4.2654083e+01 
4.4751364e-01 3.3500037e-01 4.3016472e+01 
3.5901129e-02 6.5341437e-01 4.2674721e+01 
-3.7959340e-01 8.2794034e-01 4.2568317e+01 
-3.1106678e-01 9.1965032e-01 4.2564713e+01 
-3.2659348e-02 5.4472327e-01 4.2665997e+01 
2.0396979e-01 4.9291667e-01 4.2740131e+01 
-6.2242586e-02 7.5669110e-01 4.2581669e+01 
1.7765003e-01 4.3475360e-01 4.2732578e+01 
-1.5663649e-01 6.2038553e-01 4.2571964e+01 
-4.3632439e-01 9.6404165e-01 4.2495808e+01 
-1.7531081e-01 8.4539592e-01 4.2506718e+01 
-2.7261066e-01 7.1026409e-01 4.2496017e+01 
-3.0958602e-01 9.1987789e-01 4.2426853e+01 
-3.7859210e-01 8.2613736e-01 4.2421188e+01 
4.6141517e-01 3.2527190e-01 4.2776375e+01 
6.2686495e-02 6.2762415e-01 4.2501175e+01 
-3.3570320e-04 5.2390522e-01 4.2492062e+01 
-5.6779940e-02 7.5462401e-01 4.2422298e+01 
-4.3632373e-01 9.6403772e-01 4.2357380e+01 
-1.5262254e-01 6.1603409e-01 4.2412144e+01 
-1.7177837e-01 8.4521037e-01 4.2345684e+01 
-2.7093092e-01 7.0762289e-01 4.2334549e+01 
-3.0808610e-01 9.2009580e-01 4.2287842e+01 
-3.8275370e-01 8.3137155e-01 4.2275047e+01 
4.9876589e-02 6.4471585e-01 4.2356720e+01 
-1.9539909e-02 5.3318781e-01 4.2347118e+01 
-4.3632311e-01 9.6403396e-01 4.2217781e+01 
2.1959943e-01 4.8236796e-01 4.2385345e+01 
-5.1174615e-02 7.5245124e-01 4.2259373e+01 
1.9034323e-01 4.2346162e-01 4.2378918e+01 
-1.4847966e-01 6.1155808e-01 4.2248856e+01 
4.7536272e-01 3.1546980e-01 4.2535065e+01 
-1.6817927e-01 8.4500539e-01 4.2181026e+01 
-2.6921678e-01 7.0492369e-01 4.2169544e+01 
-3.0656675e-01 9.2030340e-01 4.2147648e+01 
-3.9470181e-01 8.4769493e-01 4.2145920e+01 
7.7868804e-02 6.1763972e-01 4.2175373e+01 
-4.3632248e-01 9.6403021e-01 4.2076988e+01 
1.4390758e-02 5.1145434e-01 4.2165581e+01 
-4.5421973e-02 7.5016522e-01 4.2092751e+01 
-1.4420210e-01 6.0695171e-01 4.2081959e+01 
-3.0502778e-01 9.2049998e-01 4.2006248e+01 
-4.0175444e-01 8.5747409e-01 4.2004128e+01 
-1.6451253e-01 8.4477836e-01 4.2012604e+01 
4.8935395e-01 3.0558801e-01 4.2292507e+01 
-2.6746723e-01 7.0216429e-01 4.2000870e+01 
6.4714879e-02 6.3520777e-01 4.2024277e+01 
-4.3632188e-01 9.6402657e-01 4.1934975e+01 
-5.4755262e-03 5.2092212e-01 4.2014156e+01 
-2.3078828e-01 8.1064087e-01 4.1931458e+01 
2.3550548e-01 4.7116494e-01 4.2073269e+01 
2.0610523e-01 4.1123796e-01 4.2066772e+01 
-3.9517213e-02 7.4775779e-01 4.1922287e+01 
-1.3978374e-01 6.0220873e-01 4.1911320e+01 
-3.0346894e-01 9.2068475e-01 4.1863613e+01 
-3.9432141e-01 8.4618556e-01 4.1861881e+01 
-1.6077711e-01 8.4452641e-01 4.1840263e+01 
-2.6568118e-01 6.9934219e-01 4.1828377e+01 
-4.3632129e-01 9.6402299e-01 4.1791718e+01 
5.0338638e-01 2.9562023e-01 4.2048656e+01 
9.4028555e-02 6.0672593e-01 4.1834507e+01 
3.0205652e-02 4.9819478e-01 4.1824417e+01 
-3.8116732e-01 8.2744831e-01 4.1725647e+01 
-3.0189002e-01 9.2085695e-01 4.1719719e+01 
-3.3455357e-02 7.4522001e-01 4.1747829e+01 
-1.3521814e-01 5.9732240e-01 4.1736786e+01 
-4.3632072e-01 9.6401960e-01 4.1647179e+01 
-1.5697217e-01 8.4424627e-01 4.1663853e+01 
-2.6385748e-01 6.9645494e-01 4.1651920e+01 
8.0488607e-02 6.2478805e-01 4.1676235e+01 
2.6870471e-01 4.4547972e-01 4.1752304e+01 
9.6269641e-03 5.0785345e-01 4.1665993e+01 
2.4764967e-01 3.8646612e-01 4.1743168e+01 
-3.0029076e-01 9.2101562e-01 4.1574532e+01 
-3.9388368e-01 8.4456980e-01 4.1572796e+01 
5.1745731e-01 2.8556010e-01 4.1803486e+01 
-2.7231261e-02 7.4254233e-01 4.1569210e+01 
-1.3049847e-01 5.9228569e-01 4.1558201e+01 
-4.3632016e-01 9.6401632e-01 4.1501339e+01 
-1.5309690e-01 8.4393430e-01 4.1483204e+01 
-2.6199502e-01 6.9349992e-01 4.1471333e+01 
-2.9867104e-01 9.2115986e-01 4.1428024e+01 
-3.9364263e-01 8.4372103e-01 4.1426289e+01 
1.1125199e-01 5.9476525e-01 4.1477348e+01 
4.7217656e-02 4.8404291e-01 4.1467384e+01 
-4.3631962e-01 9.6401310e-01 4.1354160e+01 
-2.0839609e-02 7.3971421e-01 4.1386261e+01 
-1.2561750e-01 5.8709091e-01 4.1375404e+01 
5.3156406e-01 2.7540097e-01 4.1556946e+01 
-1.4915068e-01 8.4358656e-01 4.1298138e+01 
-2.9703063e-01 9.2128879e-01 4.1280167e+01 
-3.9338648e-01 8.4284443e-01 4.1278431e+01 
-2.6009262e-01 6.9047421e-01 4.1286449e+01 
2.9365057e-01 4.2687622e-01 4.1391586e+01 
9.7278498e-02 6.1333776e-01 4.1311302e+01 
2.7470219e-01 3.6807936e-01 4.1382729e+01 
2.5872495e-02 4.9389899e-01 4.1301384e+01 
-4.3631911e-01 9.6401012e-01 4.1205620e+01 
-1.4274905e-02 7.3672432e-01 4.1198803e+01 
-1.2056758e-01 5.8173001e-01 4.1188221e+01 
-2.9536936e-01 9.2140132e-01 4.1130928e+01 
[...]
POINT_DATA 4496
FIELD FieldData 5
DISPLACEMENT 3 4496  float
3.1528068e-03 3.5355976e-03 -5.2039311e-05 
3.1383780e-03 3.5143201e-03 -5.2035695e-05 
3.1610569e-03 3.5540678e-03 -5.6552668e-05 
3.1726859e-03 3.5438025e-03 -3.6940000e-05 
3.1484175e-03 3.5098633e-03 -3.8255585e-05 
3.1387648e-03 3.5213693e-03 -5.6672357e-05 
3.1238524e-03 3.4929006e-03 -5.2031428e-05 
3.1716786e-03 3.5715438e-03 -5.7854071e-05 
3.1891621e-03 3.5590779e-03 -3.0490952e-05 
3.1571295e-03 3.5505260e-03 -5.8161950e-05 
3.1747953e-03 3.5376158e-03 -3.0287538e-05 
3.1339023e-03 3.4883688e-03 -3.8185866e-05 
3.1241407e-03 3.5000776e-03 -5.6867542e-05 
3.1423129e-03 3.5291140e-03 -5.8473925e-05 
3.1827893e-03 3.5865328e-03 -5.6862151e-05 
3.1601682e-03 3.5157702e-03 -3.0083114e-05 
3.1092297e-03 3.4713361e-03 -5.2026029e-05 
3.2009825e-03 3.5740533e-03 -2.8739016e-05 
3.1444158e-03 3.5041159e-03 -3.8363814e-05 
3.1686733e-03 3.5649361e-03 -5.6300367e-05 
3.1865078e-03 3.5523600e-03 -2.8482888e-05 
3.1094223e-03 3.4786426e-03 -5.7055986e-05 
3.1192903e-03 3.4667319e-03 -3.8116876e-05 
3.1272215e-03 3.5073017e-03 -5.8790203e-05 
3.1452742e-03 3.4935274e-03 -2.9874922e-05 
3.1970674e-03 3.6014945e-03 -5.2508367e-05 
3.1464626e-03 3.5337606e-03 -5.7427587e-05 
3.0945195e-03 3.4496270e-03 -5.2017160e-05 
3.2121881e-03 3.5918045e-03 -2.9620540e-05 
3.1649661e-03 3.5201549e-03 -2.8156279e-05 
3.1118502e-03 3.4850768e-03 -5.9108814e-05 
3.0946084e-03 3.4570610e-03 -5.7247482e-05 
3.1045885e-03 3.4449561e-03 -3.8049224e-05 
3.1706805e-03 3.5614530e-03 -5.1698968e-05 
3.1301049e-03 3.4708797e-03 -2.9666260e-05 
3.1314229e-03 3.5119462e-03 -5.7689536e-05 
3.1850776e-03 3.5516436e-03 -2.9472611e-05 
3.1907156e-03 3.5872357e-03 -4.9007198e-05 
3.1501218e-03 3.4979612e-03 -2.7926866e-05 
3.2028581e-03 3.5796103e-03 -3.0732157e-05 
3.0797075e-03 3.4277844e-03 -5.2009480e-05 
3.2133257e-03 3.6182285e-03 -4.7330923e-05 
3.1542110e-03 3.5388893e-03 -5.2932333e-05 
3.1700311e-03 3.5288082e-03 -2.8998827e-05 
3.2236010e-03 3.6123134e-03 -3.2256572e-05 
3.0961873e-03 3.4624252e-03 -5.9429571e-05 
3.1161031e-03 3.4897176e-03 -5.7951078e-05 
3.0797001e-03 3.4353416e-03 -5.7434208e-05 
3.0897893e-03 3.4230349e-03 -3.7971211e-05 
3.1146605e-03 3.4478169e-03 -2.9455103e-05 
3.1350080e-03 3.4753622e-03 -2.7693457e-05 
3.2077888e-03 3.6073364e-03 -4.5379431e-05 
3.1411967e-03 3.5182128e-03 -5.1872812e-05 
3.2152026e-03 3.6032198e-03 -3.4602319e-05 
3.0648056e-03 3.4057871e-03 -5.1995547e-05 
3.1557733e-03 3.5079422e-03 -2.9099958e-05 
3.1811616e-03 3.5692432e-03 -4.6217898e-05 
3.1898222e-03 3.5639354e-03 -3.3253658e-05 
3.2306884e-03 3.6394307e-03 -4.4185606e-05 
3.2358898e-03 3.6369076e-03 -3.6885423e-05 
3.1004983e-03 3.4670634e-03 -5.8214548e-05 
3.1246457e-03 3.4955444e-03 -5.3118438e-05 
3.0802309e-03 3.4393435e-03 -5.9753991e-05 
3.0646913e-03 3.4134730e-03 -5.7623623e-05 
3.0748977e-03 3.4009744e-03 -3.7897778e-05 
3.1196156e-03 3.4523520e-03 -2.7463535e-05 
3.1401846e-03 3.4842810e-03 -2.8609051e-05 
3.0989230e-03 3.4243267e-03 -2.9245139e-05 
3.0498030e-03 3.3836544e-03 -5.1984262e-05 
3.1545057e-03 3.5297731e-03 -4.6107059e-05 
3.1630469e-03 3.5243975e-03 -3.3193894e-05 
3.0846004e-03 3.4439778e-03 -5.8471403e-05 
3.1039326e-03 3.4289134e-03 -2.7227306e-05 
3.0495934e-03 3.3914705e-03 -5.7805653e-05 
3.0599160e-03 3.3787747e-03 -3.7822647e-05 
3.1106195e-03 3.4733233e-03 -5.2021882e-05 
3.0639714e-03 3.4158125e-03 -6.0076669e-05 
3.1253856e-03 3.4626424e-03 -2.8728269e-05 
3.0828924e-03 3.4003993e-03 -2.9033974e-05 
3.2464047e-03 3.6668761e-03 -4.7241654e-05 
3.0347055e-03 3.3613732e-03 -5.1974661e-05 
3.2208564e-03 3.6291475e-03 -4.7202786e-05 
3.0934608e-03 3.4498067e-03 -5.3304244e-05 
3.1092293e-03 3.4381137e-03 -2.8216251e-05 
3.0684054e-03 3.4204442e-03 -5.8728310e-05 
3.0431545e-03 3.3554239e-03 -3.8799870e-05 
3.0343856e-03 3.3693076e-03 -5.7995323e-05 
3.0879662e-03 3.4050471e-03 -2.6995425e-05 
3.0474043e-03 3.3918342e-03 -6.0398979e-05 
3.0665717e-03 3.3760353e-03 -2.8813856e-05 
3.1951754e-03 3.5912262e-03 -4.7161178e-05 
3.1243118e-03 3.4851376e-03 -4.6027915e-05 
3.0195070e-03 3.3389563e-03 -5.1964958e-05 
3.1308325e-03 3.4767727e-03 -3.3083285e-05 
3.0788935e-03 3.4266957e-03 -5.2143499e-05 
3.0519045e-03 3.3964582e-03 -5.8978228e-05 
3.0191068e-03 3.3470187e-03 -5.8169142e-05 
3.0296545e-03 3.3339323e-03 -3.7664300e-05 
3.0938578e-03 3.4156644e-03 -2.8358862e-05 
3.0716900e-03 3.3807324e-03 -2.6756305e-05 
3.0305206e-03 3.3673809e-03 -6.0718470e-05 
3.1693652e-03 3.5530822e-03 -4.7115784e-05 
3.0499320e-03 3.3512067e-03 -2.8603426e-05 
3.0042361e-03 3.3163859e-03 -5.1941857e-05 
3.0611013e-03 3.4022890e-03 -5.3459426e-05 
3.0771091e-03 3.3902307e-03 -2.7828404e-05 
3.0037246e-03 3.3245822e-03 -5.8353373e-05 
3.0143992e-03 3.3113132e-03 -3.7591002e-05 
3.0350918e-03 3.3720024e-03 -5.9225822e-05 
3.0551217e-03 3.3559734e-03 -2.6527809e-05 
3.0921616e-03 3.4376008e-03 -4.5946559e-05 
3.0133103e-03 3.3424452e-03 -6.1034123e-05 
3.1003649e-03 3.4315931e-03 -3.2889438e-05 
3.0329947e-03 3.3259341e-03 -2.8396465e-05 
3.1434428e-03 3.5147802e-03 -4.7086207e-05 
2.9888556e-03 3.2937061e-03 -5.1923467e-05 
3.0027574e-03 3.2921419e-03 -3.6140773e-05 
2.9882619e-03 3.3020310e-03 -5.8516755e-05 
3.0459699e-03 3.3782579e-03 -5.2231240e-05 
3.0611402e-03 3.3669460e-03 -2.8003391e-05 
3.0179524e-03 3.3470790e-03 -5.9467584e-05 
3.0382283e-03 3.3307520e-03 -2.6287898e-05 
2.9957886e-03 3.3170537e-03 -6.1346545e-05 
2.9733991e-03 3.2708847e-03 -5.1895866e-05 
3.0157252e-03 3.3001592e-03 -2.8181801e-05 
3.1174035e-03 3.4762942e-03 -4.7038648e-05 
3.0275171e-03 3.3529266e-03 -5.3579610e-05 
2.9876824e-03 3.2690438e-03 -3.5512592e-05 
2.9727141e-03 3.2793339e-03 -5.8666021e-05 
3.0437731e-03 3.3405731e-03 -2.7451750e-05 
3.0604820e-03 3.3906552e-03 -4.5785957e-05 
3.0005111e-03 3.3216712e-03 -5.9711831e-05 
3.0688518e-03 3.3852011e-03 -3.2929125e-05 
3.0210316e-03 3.3050675e-03 -2.6079311e-05 
2.9578644e-03 3.2479235e-03 -5.1849700e-05 
2.9779174e-03 3.2911568e-03 -6.1667859e-05 
2.9981337e-03 3.2739346e-03 -2.7977134e-05 
2.9570628e-03 3.2565105e-03 -5.8830021e-05 
2.9712846e-03 3.2446315e-03 -3.5343466e-05 
3.0913069e-03 3.4377291e-03 -4.6984085e-05 
3.0118059e-03 3.3279383e-03 -5.2271822e-05 
3.0271916e-03 3.3164222e-03 -2.7655122e-05 
2.9827324e-03 3.2957783e-03 -5.9924678e-05 
2.9422296e-03 3.2248581e-03 -5.1817515e-05 
3.0035009e-03 3.2789065e-03 -2.5852030e-05 
2.9597150e-03 3.2647636e-03 -6.1969949e-05 
2.9802141e-03 3.2472264e-03 -2.7772536e-05 
2.9413463e-03 3.2335741e-03 -5.8979334e-05 
2.9539366e-03 3.2196480e-03 -3.5768226e-05 
2.9926694e-03 3.3016324e-03 -5.3645992e-05 
3.0092043e-03 3.2890835e-03 -2.7081600e-05 
2.9265257e-03 3.2016858e-03 -5.1779960e-05 
3.0215564e-03 3.3332477e-03 -4.5791345e-05 
2.9646256e-03 3.2693958e-03 -6.0128226e-05 
3.0301251e-03 3.3275515e-03 -3.2541593e-05 
2.9856511e-03 3.2522846e-03 -2.5634006e-05 
3.0650988e-03 3.3989849e-03 -4.6915200e-05 
2.9411700e-03 3.2378661e-03 -6.2267129e-05 
2.9619534e-03 3.2200257e-03 -2.7571930e-05 
2.9255659e-03 3.2105404e-03 -5.9113954e-05 
2.9368277e-03 3.1963589e-03 -3.7148333e-05 
2.9763775e-03 3.2757008e-03 -5.2266281e-05 
2.9107456e-03 3.1783818e-03 -5.1748109e-05 
2.9919867e-03 3.2640628e-03 -2.7346274e-05 
2.9461849e-03 3.2425162e-03 -6.0324081e-05 
2.9674943e-03 3.2251768e-03 -2.5404308e-05 
2.9096624e-03 3.1873377e-03 -5.9280297e-05 
2.9193463e-03 3.1717853e-03 -3.7998005e-05 
2.9222744e-03 3.2104568e-03 -6.2555417e-05 
3.0388364e-03 3.3601401e-03 -4.6849116e-05 
2.9433877e-03 3.1923568e-03 -2.7354981e-05 
2.9565496e-03 3.2484215e-03 -5.3660249e-05 
2.8948369e-03 3.1549400e-03 -5.1725594e-05 
2.9733616e-03 3.2357434e-03 -2.6744921e-05 
2.9185540e-03 3.1866343e-03 -4.9418937e-05 
2.9878253e-03 3.2834017e-03 -4.5716624e-05 
2.9964992e-03 3.2777064e-03 -3.2368531e-05 
2.9274118e-03 3.2151483e-03 -6.0515024e-05 
2.9489985e-03 3.1975978e-03 -2.5176780e-05 
2.8936742e-03 3.1640145e-03 -5.9425562e-05 
2.9051665e-03 3.1494696e-03 -3.6983030e-05 
2.9030228e-03 3.1825528e-03 -6.2850311e-05 
2.9244777e-03 3.1641428e-03 -2.7137849e-05 
2.8788599e-03 3.1313605e-03 -5.1676234e-05 
3.0125731e-03 3.3213042e-03 -4.6789402e-05 
2.9396468e-03 3.2214990e-03 -5.2210460e-05 
2.9554907e-03 3.2098289e-03 -2.7058155e-05 
2.8929163e-03 3.1291351e-03 -3.5347723e-05 
2.8776382e-03 3.1405978e-03 -5.9539863e-05 
2.9082701e-03 3.1872257e-03 -6.0698239e-05 
2.9301452e-03 3.1694851e-03 -2.4943833e-05 
2.8628234e-03 3.1076618e-03 -5.1603911e-05 
2.8834138e-03 3.1540822e-03 -6.3134656e-05 
2.9051830e-03 3.1354157e-03 -2.6948264e-05 
2.9190881e-03 3.1931980e-03 -5.3617230e-05 
2.9555720e-03 3.2351278e-03 -4.5187073e-05 
2.9361669e-03 3.1804615e-03 -2.6430193e-05 
2.9637518e-03 3.2303249e-03 -3.3037650e-05 
2.8614958e-03 3.1170540e-03 -5.9670008e-05 
2.8732559e-03 3.1021526e-03 -3.6768321e-05 
2.9863704e-03 3.2825768e-03 -4.6720186e-05 
2.8887803e-03 3.1587740e-03 -6.0865463e-05 
2.9109644e-03 3.1408861e-03 -2.4753354e-05 
2.8467134e-03 3.0839029e-03 -5.1542807e-05 
2.8634260e-03 3.1250815e-03 -6.3387357e-05 
2.8855423e-03 3.1061920e-03 -2.6773074e-05 
2.8453162e-03 3.0934198e-03 -5.9771861e-05 
2.8571857e-03 3.0783771e-03 -3.6689518e-05 
2.9015539e-03 3.1652362e-03 -5.2077157e-05 
2.9176581e-03 3.1536601e-03 -2.6779329e-05 
2.8305172e-03 3.0600708e-03 -5.1500003e-05 
2.8689296e-03 3.1298089e-03 -6.0999464e-05 
2.8914248e-03 3.1117753e-03 -2.4529458e-05 
2.9601024e-03 3.2437150e-03 -4.6610141e-05 
2.8430757e-03 3.0955572e-03 -6.3627471e-05 
2.8290534e-03 3.0697221e-03 -5.9878636e-05 
2.8410181e-03 3.0544756e-03 -3.6573256e-05 
2.8655510e-03 3.0764341e-03 -2.6544805e-05 
2.9180257e-03 3.1794349e-03 -4.4910805e-05 
2.8802527e-03 3.1358688e-03 -5.3511707e-05 
2.9261510e-03 3.1750533e-03 -3.3148761e-05 
2.8976623e-03 3.1232280e-03 -2.6120262e-05 
2.8142682e-03 3.0360667e-03 -5.1439049e-05 
2.8487400e-03 3.1002983e-03 -6.1146740e-05 
2.8715041e-03 3.0821383e-03 -2.4314286e-05 
2.8127090e-03 3.0458427e-03 -5.9997197e-05 
2.8248283e-03 3.0304552e-03 -3.6484136e-05 
2.8223514e-03 3.0654485e-03 -6.3884283e-05 
2.8451860e-03 3.0461571e-03 -2.6360382e-05 
2.9338691e-03 3.2049210e-03 -4.6517816e-05 
2.7979203e-03 3.0119978e-03 -5.1387629e-05 
2.8620849e-03 3.1068665e-03 -5.1892497e-05 
2.8784119e-03 3.0954424e-03 -2.6546601e-05 
2.7962984e-03 3.0219115e-03 -6.0110528e-05 
2.8085213e-03 3.0063353e-03 -3.6373309e-05 
2.8281393e-03 3.0702020e-03 -6.1249186e-05 
2.8512583e-03 3.0519885e-03 -2.4124140e-05 
2.7815306e-03 2.9877988e-03 -5.1305840e-05 
2.8012528e-03 3.0347907e-03 -6.4087610e-05 
2.8244227e-03 3.0153280e-03 -2.6153508e-05 
2.8791085e-03 3.1216836e-03 -4.4618315e-05 
2.8871913e-03 3.1178072e-03 -3.3284046e-05 
2.8417942e-03 3.0768402e-03 -5.1719406e-05 
2.9077204e-03 3.1662488e-03 -4.6427649e-05 
2.7798442e-03 2.9978582e-03 -6.0170121e-05 
2.7921931e-03 2.9821668e-03 -3.6306792e-05 
2.8582388e-03 3.0656019e-03 -2.6421694e-05 
2.8072158e-03 3.0395878e-03 -6.1338251e-05 
2.8306087e-03 3.0212933e-03 -2.3930212e-05 
2.7650613e-03 2.9635897e-03 -5.1245945e-05 
2.7797255e-03 3.0035528e-03 -6.4302483e-05 
2.8033515e-03 2.9839766e-03 -2.5965310e-05 
2.7633340e-03 2.9738210e-03 -6.0230446e-05 
2.7757676e-03 2.9579110e-03 -3.6192272e-05 
2.8211724e-03 3.0462898e-03 -5.1568808e-05 
2.7881481e-03 2.9795060e-03 -3.8619550e-05 
2.8377438e-03 3.0352529e-03 -2.6347381e-05 
2.7485550e-03 2.9392522e-03 -5.1146471e-05 
2.8815020e-03 3.1274057e-03 -4.6301418e-05 
2.8451863e-03 3.0718993e-03 -4.4744687e-05 
2.7858980e-03 3.0084171e-03 -6.1342558e-05 
2.8535649e-03 3.0669877e-03 -3.2392411e-05 
2.8096342e-03 2.9901357e-03 -2.3738558e-05 
2.7467422e-03 2.9496020e-03 -6.0254806e-05 
2.7593020e-03 2.9335830e-03 -3.6088164e-05 
2.7579300e-03 2.9718371e-03 -6.4406362e-05 
2.7818533e-03 2.9521326e-03 -2.5851976e-05 
2.7319933e-03 2.9149042e-03 -5.1086561e-05 
2.8002097e-03 3.0152262e-03 -5.1416584e-05 
2.8168829e-03 3.0044038e-03 -2.6250133e-05 
2.7642502e-03 2.9767279e-03 -6.1389990e-05 
2.7301549e-03 2.9253659e-03 -6.0309689e-05 
2.7428211e-03 2.9091979e-03 -3.5977009e-05 
2.7882711e-03 2.9584449e-03 -2.3528337e-05 
2.8553170e-03 3.0887879e-03 -4.6236495e-05 
2.7356814e-03 2.9395260e-03 -6.4604632e-05 
2.7153855e-03 2.8904493e-03 -5.0996263e-05 
2.8295191e-03 3.0344466e-03 -3.4489010e-05 
2.8236560e-03 3.0385274e-03 -4.3560136e-05 
2.7600124e-03 2.9197542e-03 -2.5627854e-05 
2.7788857e-03 2.9836406e-03 -5.1205450e-05 
2.7956311e-03 2.9730063e-03 -2.6195241e-05 
2.7134714e-03 2.9010447e-03 -6.0372251e-05 
2.7262452e-03 2.8847319e-03 -3.5866167e-05 
2.7421962e-03 2.9444490e-03 -6.1416475e-05 
2.7665673e-03 2.9262113e-03 -2.3347015e-05 
2.6986746e-03 2.8658945e-03 -5.0897033e-05 
2.8292588e-03 3.0502290e-03 -4.6072302e-05 
2.7129911e-03 2.9065988e-03 -6.4786364e-05 
2.7377736e-03 2.8867852e-03 -2.5406560e-05 
2.6966925e-03 2.8766477e-03 -6.0419872e-05 
2.7095517e-03 2.8601640e-03 -3.5770256e-05 
2.8035832e-03 2.9961171e-03 -3.4387776e-05 
2.7977496e-03 3.0002538e-03 -4.3436048e-05 
2.7566422e-03 2.9508150e-03 -5.1014980e-05 
2.7732877e-03 2.9399730e-03 -2.6079695e-05 
2.7134924e-03 2.8774631e-03 -4.3793883e-05 
2.6819424e-03 2.8413134e-03 -5.0772051e-05 
2.7195835e-03 2.9115586e-03 -6.1520470e-05 
2.7443238e-03 2.8932367e-03 -2.3197801e-05 
2.6799159e-03 2.8520331e-03 -6.0290517e-05 
2.6927725e-03 2.8356623e-03 -3.5840098e-05 
2.6903537e-03 2.8737106e-03 -6.4817119e-05 
2.8033336e-03 3.0118993e-03 -4.5900386e-05 
2.7157285e-03 2.8542278e-03 -2.5285079e-05 
2.6654436e-03 2.8171656e-03 -5.0703162e-05 
2.7329894e-03 2.9166129e-03 -5.1320338e-05 
2.7505620e-03 2.9060107e-03 -2.5718307e-05 
2.7779147e-03 2.9582425e-03 -3.4288194e-05 
2.7721233e-03 2.9623988e-03 -4.3267934e-05 
2.6911036e-03 2.8447718e-03 -4.3841716e-05 
2.6634340e-03 2.8278818e-03 -6.0141614e-05 
2.6967830e-03 2.8786256e-03 -6.1739280e-05 
2.6762059e-03 2.8114731e-03 -3.5870151e-05 
2.7222882e-03 2.8606169e-03 -2.3022681e-05 
2.6492265e-03 2.7932990e-03 -5.0560237e-05 
2.6683665e-03 2.8417553e-03 -6.4849533e-05 
2.6942459e-03 2.8225502e-03 -2.5175686e-05 
2.7776305e-03 2.9739023e-03 -4.5739795e-05 
2.7099580e-03 2.8836639e-03 -5.1849391e-05 
2.7285540e-03 2.8731362e-03 -2.5375604e-05 
2.6471021e-03 2.8039669e-03 -6.0057340e-05 
2.6598666e-03 2.7876596e-03 -3.5911951e-05 
2.7384292e-03 2.9143128e-03 -4.4189735e-05 
2.7471643e-03 2.9097227e-03 -3.1903935e-05 
2.6746211e-03 2.8466405e-03 -6.1950836e-05 
2.7007705e-03 2.8287431e-03 -2.2838494e-05 
2.6639882e-03 2.8050651e-03 -4.3734268e-05 
2.6332012e-03 2.7698376e-03 -5.0459093e-05 
2.6732995e-03 2.7916229e-03 -2.5023281e-05 
2.6468893e-03 2.8105739e-03 -6.4864391e-05 
2.6310682e-03 2.7804375e-03 -5.9925918e-05 
2.6437677e-03 2.7642248e-03 -3.5955094e-05 
2.7070409e-03 2.8410670e-03 -2.5025309e-05 
2.6875101e-03 2.8515691e-03 -5.2360443e-05 
2.7522275e-03 2.9364575e-03 -4.5622946e-05 
2.6173566e-03 2.7466957e-03 -5.0378636e-05 
2.6797547e-03 2.7976802e-03 -2.2657119e-05 
2.6529816e-03 2.8154901e-03 -6.2156229e-05 
2.7217343e-03 2.8881242e-03 -4.3051248e-05 
2.7210480e-03 2.8717283e-03 -3.2213247e-05 
2.6152022e-03 2.7572422e-03 -5.9788130e-05 
2.6267827e-03 2.7400863e-03 -3.6363032e-05 
2.6528693e-03 2.7614015e-03 -2.4778712e-05 
2.6259790e-03 2.7803031e-03 -6.4962893e-05 
2.6268174e-03 2.7533954e-03 -4.5453788e-05 
2.6017304e-03 2.7237707e-03 -5.0223800e-05 
2.6859597e-03 2.8097392e-03 -2.4754692e-05 
2.6719149e-03 2.8244655e-03 -4.9355509e-05 
2.6591718e-03 2.7673966e-03 -2.2574457e-05 
2.6319250e-03 2.7850894e-03 -6.2336127e-05 
2.5995185e-03 2.7342697e-03 -5.9617239e-05 
2.7272592e-03 2.8996875e-03 -4.5557954e-05 
2.6121088e-03 2.7181492e-03 -3.5965269e-05 
2.6257904e-03 2.7455315e-03 -4.1066869e-05 
2.6981775e-03 2.8380307e-03 -3.2056643e-05 
2.5863042e-03 2.7012385e-03 -5.0107741e-05 
2.6327614e-03 2.7319840e-03 -2.4754469e-05 
2.6055679e-03 2.7506696e-03 -6.4924505e-05 
2.6969479e-03 2.8516666e-03 -4.2893185e-05 
2.6654017e-03 2.7792526e-03 -2.4399194e-05 
2.6443393e-03 2.7898317e-03 -5.3123924e-05 
2.5840579e-03 2.7116884e-03 -5.9520007e-05 
2.5966240e-03 2.6956294e-03 -3.5977253e-05 
2.6391104e-03 2.7378697e-03 -2.2391843e-05 
2.6113919e-03 2.7554610e-03 -6.2450541e-05 
2.5998398e-03 2.7073128e-03 -4.0737046e-05 
2.5710461e-03 2.6789971e-03 -4.9994498e-05 
2.7024662e-03 2.8632449e-03 -4.5490262e-05 
2.6132003e-03 2.7032243e-03 -2.4552917e-05 
2.5856248e-03 2.7218265e-03 -6.4939115e-05 
2.6719950e-03 2.7970651e-03 -3.0204288e-05 
2.6591111e-03 2.7992779e-03 -4.4845689e-05 
2.5687658e-03 2.6893900e-03 -5.9378744e-05 
2.6453196e-03 2.7494349e-03 -2.4097390e-05 
2.5841943e-03 2.6741805e-03 -3.3606862e-05 
2.6235697e-03 2.7602017e-03 -5.3523268e-05 
2.5559235e-03 2.6570007e-03 -4.9896415e-05 
2.6194605e-03 2.7089657e-03 -2.2190496e-05 
2.5913238e-03 2.7266126e-03 -6.2554442e-05 
2.5661213e-03 2.6514311e-03 -3.5997291e-05 
2.5525070e-03 2.6645742e-03 -5.8442361e-05 
2.5940661e-03 2.6751314e-03 -2.4403009e-05 
2.5661096e-03 2.6936487e-03 -6.4950829e-05 
2.6779131e-03 2.8271065e-03 -4.5326062e-05 
2.5680617e-03 2.6706315e-03 -4.7167534e-05 
2.6256817e-03 2.7204007e-03 -2.3824168e-05 
2.6032149e-03 2.7312194e-03 -5.3905555e-05 
2.5410105e-03 2.6353726e-03 -4.9817856e-05 
2.6002077e-03 2.6808542e-03 -2.2104079e-05 
2.6481398e-03 2.7798617e-03 -4.2619660e-05 
2.6537203e-03 2.7756961e-03 -3.4036362e-05 
2.5578407e-03 2.6358888e-03 -3.3556433e-05 
2.5716636e-03 2.6983237e-03 -6.2616426e-05 
2.5412613e-03 2.6507392e-03 -6.0061742e-05 
2.6335598e-03 2.7370220e-03 -2.7446522e-05 
2.6180691e-03 2.7418740e-03 -4.6464076e-05 
2.5752506e-03 2.6477100e-03 -2.4321409e-05 
2.5471798e-03 2.6661586e-03 -6.4765685e-05 
2.5263387e-03 2.6140278e-03 -4.9680726e-05 
2.6064413e-03 2.6919870e-03 -2.3546017e-05 
2.5834374e-03 2.7030476e-03 -5.4234224e-05 
2.6534563e-03 2.7911514e-03 -4.5158376e-05 
2.5434806e-03 2.6136991e-03 -3.2537424e-05 
2.5252178e-03 2.6276526e-03 -6.0044633e-05 
2.5814129e-03 2.6532640e-03 -2.1980310e-05 
2.5525626e-03 2.6708730e-03 -6.2724430e-05 
2.5118482e-03 2.5929229e-03 -4.9541690e-05 
2.6240526e-03 2.7445552e-03 -4.2441730e-05 
2.6295604e-03 2.7404148e-03 -3.3974156e-05 
2.5569119e-03 2.6208295e-03 -2.4117153e-05 
2.5286372e-03 2.6394303e-03 -6.4725245e-05 
2.5875969e-03 2.6642166e-03 -2.3301061e-05 
2.5093714e-03 2.6043393e-03 -5.9710281e-05 
2.5587233e-03 2.6699642e-03 -5.6044704e-05 
2.5999274e-03 2.6874300e-03 -2.7004369e-05 
2.5250115e-03 2.5869019e-03 -3.2503198e-05 
2.5629622e-03 2.6263434e-03 -2.1876831e-05 
2.5339180e-03 2.6440134e-03 -6.2749277e-05 
2.4974446e-03 2.5721078e-03 -4.9407376e-05 
2.6293942e-03 2.7557679e-03 -4.4940789e-05 
2.5161693e-03 2.5948631e-03 -4.6555684e-05 
2.5389146e-03 2.5946642e-03 -2.3967494e-05 
2.5786392e-03 2.6836130e-03 -4.5745259e-05 
2.4947191e-03 2.5807309e-03 -5.7899382e-05 
2.5104880e-03 2.6131668e-03 -6.4660067e-05 
2.5073711e-03 2.5666242e-03 -3.5978897e-05 
2.5691432e-03 2.6371072e-03 -2.3049706e-05 
2.6002906e-03 2.7097261e-03 -4.2210049e-05 
2.6057598e-03 2.7056090e-03 -3.3815577e-05 
2.5451866e-03 2.6486001e-03 -5.4855249e-05 
2.5134005e-03 2.5667439e-03 -3.0127299e-05 
2.4832466e-03 2.5515894e-03 -4.9293183e-05 
2.5449134e-03 2.6000659e-03 -2.1692595e-05 
2.5156350e-03 2.6177776e-03 -6.2774459e-05 
2.4946416e-03 2.5488494e-03 -3.6318950e-05 
2.4809453e-03 2.5615888e-03 -5.8308091e-05 
2.5212853e-03 2.5689544e-03 -2.3824832e-05 
2.4927200e-03 2.5876323e-03 -6.4548796e-05 
2.6055533e-03 2.7208803e-03 -4.4777014e-05 
2.5510173e-03 2.6105749e-03 -2.2822107e-05 
2.4692230e-03 2.5313040e-03 -4.9152186e-05 
2.5215561e-03 2.6170183e-03 -5.6484529e-05 
2.4911556e-03 2.5373006e-03 -3.1843691e-05 
2.5656582e-03 2.6379579e-03 -2.7189861e-05 
2.5271797e-03 2.5743004e-03 -2.1587261e-05 
2.5052661e-03 2.5673001e-03 -3.8390801e-05 
2.4694824e-03 2.5471472e-03 -5.9641781e-05 
2.5767607e-03 2.6753400e-03 -4.2080017e-05 
2.4977671e-03 2.5921338e-03 -6.2801329e-05 
2.5821845e-03 2.6712555e-03 -3.3763878e-05 
2.5039602e-03 2.5439179e-03 -2.3759809e-05 
2.5409916e-03 2.6298489e-03 -4.6198737e-05 