# vtk DataFile Version 4.0
vtk output
ASCII
DATASET UNSTRUCTURED_GRID
POINTS 4496 float
-4.3633327e-01 9.6409470e-01 4.4200001e+01 
-4.3633258e-01 9.6409065e-01 4.4074627e+01 
-3.2152572e-01 9.1279918e-01 4.4200001e+01 
-3.8534868e-01 8.4052670e-01 4.4200001e+01 
-3.9589554e-01 8.5545403e-01 4.4010014e+01 
-3.2616228e-01 9.1667932e-01 4.4011734e+01 
-4.3633190e-01 9.6408653e-01 4.3948376e+01 
-2.1293370e-01 8.4677851e-01 4.4200001e+01 
-2.9042658e-01 7.3813015e-01 4.4200001e+01 
-2.1010752e-01 8.4669363e-01 4.4073502e+01 
-2.8908840e-01 7.3604190e-01 4.4072292e+01 
-3.9589015e-01 8.5505831e-01 4.3883316e+01 
-3.2487559e-01 9.1697580e-01 4.3885036e+01 
-2.0722924e-01 8.4660655e-01 4.3944645e+01 
-1.1981077e-01 7.7773046e-01 4.4200001e+01 
-2.8772619e-01 7.3391593e-01 4.3942276e+01 
-4.3633121e-01 9.6408242e-01 4.3821228e+01 
-1.9739023e-01 6.6468561e-01 4.4200001e+01 
-2.9444304e-01 7.8727525e-01 4.3879974e+01 
-8.7554991e-02 7.5255024e-01 4.4042213e+01 
-1.6445170e-01 6.4084798e-01 4.4041008e+01 
-3.2357255e-01 9.1726828e-01 4.3757431e+01 
-3.9587301e-01 8.5463828e-01 4.3755711e+01 
-2.0429766e-01 8.4651643e-01 4.3813354e+01 
-2.8633916e-01 7.3175091e-01 4.3809875e+01 
-2.6899619e-02 6.8901783e-01 4.4200001e+01 
-1.0567340e-01 7.7152997e-01 4.3875790e+01 
-4.3633053e-01 9.6407831e-01 4.3693161e+01 
-8.7133333e-02 5.9509218e-01 4.4200001e+01 
-1.8777622e-01 6.5475601e-01 4.3873402e+01 
-2.0131156e-01 8.4642249e-01 4.3679543e+01 
-3.2225290e-01 9.1755641e-01 4.3628902e+01 
-3.9584404e-01 8.5419410e-01 4.3627178e+01 
-1.0114321e-03 6.6670936e-01 4.3939713e+01 
-2.8492665e-01 7.2954547e-01 4.3675007e+01 
-1.0131179e-01 7.7015632e-01 4.3743176e+01 
-6.0682178e-02 5.7631296e-01 4.3938457e+01 
3.9444737e-02 6.2338209e-01 4.4053139e+01 
-1.8470748e-01 6.5131217e-01 4.3739727e+01 
-7.0938184e-03 5.4737431e-01 4.4052326e+01 
-4.3632981e-01 9.6407413e-01 4.3564159e+01 
7.6947339e-02 5.8804804e-01 4.4200001e+01 
-1.2721874e-02 6.8194175e-01 4.3817982e+01 
-7.7214435e-02 5.8474159e-01 4.3819649e+01 
4.0195532e-02 5.2425718e-01 4.4200001e+01 
-1.9826968e-01 8.4632379e-01 4.3543118e+01 
-9.6842363e-02 7.6872379e-01 4.3607994e+01 
-3.2091641e-01 9.1783977e-01 4.3499420e+01 
-3.9580306e-01 8.5372573e-01 4.3497700e+01 
-2.8348783e-01 7.2729832e-01 4.3537586e+01 
-1.8155001e-01 6.4778340e-01 4.3603539e+01 
1.5678726e-01 5.2239102e-01 4.4060219e+01 
1.0298219e-02 6.6009766e-01 4.3674484e+01 
1.3250886e-01 4.7546524e-01 4.4058990e+01 
-4.3632913e-01 9.6407002e-01 4.3434200e+01 
-5.0139543e-02 5.6696451e-01 4.3671154e+01 
1.3504514e-01 5.4209155e-01 4.3856747e+01 
1.0361936e-01 4.8715758e-01 4.3855240e+01 
2.0846681e-01 4.8028421e-01 4.4200001e+01 
1.9279444e-01 4.4799727e-01 4.4200001e+01 
-9.2261828e-02 7.6722860e-01 4.3470158e+01 
-1.4701239e-03 6.7547697e-01 4.3552124e+01 
-1.9517080e-01 8.4621930e-01 4.3403992e+01 
-3.1956279e-01 9.1811794e-01 4.3368977e+01 
-3.9574999e-01 8.5323322e-01 4.3367252e+01 
-1.7830023e-01 6.4416617e-01 4.3464752e+01 
-6.7131944e-02 5.7555372e-01 4.3547829e+01 
-2.8202194e-01 7.2500783e-01 4.3397518e+01 
-4.3632844e-01 9.6406585e-01 4.3303261e+01 
1.5138821e-01 5.3037512e-01 4.3609200e+01 
1.2119007e-01 4.7490793e-01 4.3606068e+01 
-8.7566733e-02 7.6566672e-01 4.3329563e+01 
-1.7495437e-01 6.4045686e-01 4.3323273e+01 
-3.1819177e-01 9.1839045e-01 4.3237537e+01 
-3.9568463e-01 8.5271639e-01 4.3235813e+01 
2.2269404e-02 6.5294570e-01 4.3398811e+01 
-1.9201367e-01 8.4610778e-01 4.3262066e+01 
-3.8899176e-02 5.5709696e-01 4.3393635e+01 
-2.8052819e-01 7.2267252e-01 4.3254715e+01 
3.7877345e-01 3.8273901e-01 4.4200001e+01 
-4.3632776e-01 9.6406174e-01 4.3171322e+01 
3.9241230e-01 3.7329337e-01 4.3965439e+01 
1.0283732e-02 6.6872352e-01 4.3271511e+01 
-5.6385640e-02 5.6585240e-01 4.3265472e+01 
-8.2753494e-02 7.6403379e-01 4.3186119e+01 
-4.0345609e-01 8.6371827e-01 4.3104889e+01 
-3.1680310e-01 9.1865683e-01 4.3105087e+01 
-1.7150842e-01 6.3665158e-01 4.3179005e+01 
-1.8879703e-01 8.4598809e-01 4.3117241e+01 
-2.7900568e-01 7.2029078e-01 4.3109074e+01 
4.0610775e-01 3.6380205e-01 4.3729839e+01 
1.6776134e-01 5.1882964e-01 4.3331150e+01 
-4.3632707e-01 9.6405768e-01 4.3038357e+01 
1.4031014e-01 4.6124566e-01 4.3307755e+01 
3.4952711e-02 6.4519531e-01 4.3111935e+01 
-7.7818394e-02 7.6232505e-01 4.3039719e+01 
-3.1539652e-01 9.1891652e-01 4.2971603e+01 
-3.9551663e-01 8.5160977e-01 4.2969879e+01 
-2.6899155e-02 5.4666573e-01 4.3105160e+01 
-1.6795819e-01 6.3274628e-01 4.3031849e+01 
-1.8551964e-01 8.4585863e-01 4.2969406e+01 
4.1985780e-01 3.5425979e-01 4.3493168e+01 
-2.7745360e-01 7.1786088e-01 4.2960495e+01 
-4.3632638e-01 9.6405357e-01 4.2904346e+01 
2.2723136e-02 6.6139150e-01 4.2979332e+01 
-4.4916678e-02 5.5559248e-01 4.2971806e+01 
-3.1397179e-01 9.1916907e-01 4.2837063e+01 
-3.9541367e-01 8.5101974e-01 4.2835335e+01 
-7.2757579e-02 7.6053542e-01 4.2890255e+01 
-1.6429928e-01 6.2873662e-01 4.2881699e+01 
1.8463810e-01 5.0694346e-01 4.3035332e+01 
-1.8218029e-01 8.4571803e-01 4.2818455e+01 
1.5503895e-01 4.5003417e-01 4.3027725e+01 
-2.7587104e-01 7.1538109e-01 4.2808868e+01 
4.3366045e-01 3.4466109e-01 4.3255390e+01 
-4.3632573e-01 9.6404958e-01 4.2769268e+01 
-3.8429454e-01 8.3484912e-01 4.2710606e+01 
-3.1252861e-01 9.1941386e-01 4.2701439e+01 
4.8404284e-02 6.3678014e-01 4.2813030e+01 
-1.4070326e-02 5.3562075e-01 4.2804932e+01 
-6.7567028e-02 7.5865942e-01 4.2737610e+01 
-1.6052702e-01 6.2461799e-01 4.2728443e+01 
-1.7877772e-01 8.4556442e-01 4.2664265e+01 
-4.3632504e-01 9.6404558e-01 4.2633099e+01 
-2.7425703e-01 7.1284944e-01 4.2654083e+01 
4.4751364e-01 3.3500037e-01 4.3016472e+01 
3.5901129e-02 6.5341437e-01 4.2674721e+01 
-3.7959340e-01 8.2794034e-01 4.2568317e+01 
-3.1106678e-01 9.1965032e-01 4.2564713e+01 
-3.2659348e-02 5.4472327e-01 4.2665997e+01 
2.0396979e-01 4.9291667e-01 4.2740131e+01 
-6.2242586e-02 7.5669110e-01 4.2581669e+01 
1.7765003e-01 4.3475360e-01 4.2732578e+01 
-1.5663649e-01 6.2038553e-01 4.2571964e+01 
-4.3632439e-01 9.6404165e-01 4.2495808e+01 
-1.7531081e-01 8.4539592e-01 4.2506718e+01 
-2.7261066e-01 7.1026409e-01 4.2496017e+01 
-3.0958602e-01 9.1987789e-01 4.2426853e+01 
-3.7859210e-01 8.2613736e-01 4.2421188e+01 
4.6141517e-01 3.2527190e-01 4.2776375e+01 
6.2686495e-02 6.2762415e-01 4.2501175e+01 
-3.3570320e-04 5.2390522e-01 4.2492062e+01 
-5.6779940e-02 7.5462401e-01 4.2422298e+01 
-4.3632373e-01 9.6403772e-01 4.2357380e+01 
-1.5262254e-01 6.1603409e-01 4.2412144e+01 
-1.7177837e-01 8.4521037e-01 4.2345684e+01 
-2.7093092e-01 7.0762289e-01 4.2334549e+01 
-3.0808610e-01 9.2009580e-01 4.2287842e+01 
-3.8275370e-01 8.3137155e-01 4.2275047e+01 
4.9876589e-02 6.4471585e-01 4.2356720e+01 
-1.9539909e-02 5.3318781e-01 4.2347118e+01 
-4.3632311e-01 9.6403396e-01 4.2217781e+01 
2.1959943e-01 4.8236796e-01 4.2385345e+01 
-5.1174615e-02 7.5245124e-01 4.2259373e+01 
1.9034323e-01 4.2346162e-01 4.2378918e+01 
-1.4847966e-01 6.1155808e-01 4.2248856e+01 
4.7536272e-01 3.1546980e-01 4.2535065e+01 
-1.6817927e-01 8.4500539e-01 4.2181026e+01 
-2.6921678e-01 7.0492369e-01 4.2169544e+01 
-3.0656675e-01 9.2030340e-01 4.2147648e+01 
-3.9470181e-01 8.4769493e-01 4.2145920e+01 
7.7868804e-02 6.1763972e-01 4.2175373e+01 
-4.3632248e-01 9.6403021e-01 4.2076988e+01 
1.4390758e-02 5.1145434e-01 4.2165581e+01 
-4.5421973e-02 7.5016522e-01 4.2092751e+01 
-1.4420210e-01 6.0695171e-01 4.2081959e+01 
-3.0502778e-01 9.2049998e-01 4.2006248e+01 
-4.0175444e-01 8.5747409e-01 4.2004128e+01 
-1.6451253e-01 8.4477836e-01 4.2012604e+01 
4.8935395e-01 3.0558801e-01 4.2292507e+01 
-2.6746723e-01 7.0216429e-01 4.2000870e+01 
6.4714879e-02 6.3520777e-01 4.2024277e+01 
-4.3632188e-01 9.6402657e-01 4.1934975e+01 
-5.4755262e-03 5.2092212e-01 4.2014156e+01 
-2.3078828e-01 8.1064087e-01 4.1931458e+01 
2.3550548e-01 4.7116494e-01 4.2073269e+01 
2.0610523e-01 4.1123796e-01 4.2066772e+01 
-3.9517213e-02 7.4775779e-01 4.1922287e+01 
-1.3978374e-01 6.0220873e-01 4.1911320e+01 
-3.0346894e-01 9.2068475e-01 4.1863613e+01 
-3.9432141e-01 8.4618556e-01 4.1861881e+01 
-1.6077711e-01 8.4452641e-01 4.1840263e+01 
-2.6568118e-01 6.9934219e-01 4.1828377e+01 
-4.3632129e-01 9.6402299e-01 4.1791718e+01 
5.0338638e-01 2.9562023e-01 4.2048656e+01 
9.4028555e-02 6.0672593e-01 4.1834507e+01 
3.0205652e-02 4.9819478e-01 4.1824417e+01 
-3.8116732e-01 8.2744831e-01 4.1725647e+01 
-3.0189002e-01 9.2085695e-01 4.1719719e+01 
-3.3455357e-02 7.4522001e-01 4.1747829e+01 
-1.3521814e-01 5.9732240e-01 4.1736786e+01 
-4.3632072e-01 9.6401960e-01 4.1647179e+01 
-1.5697217e-01 8.4424627e-01 4.1663853e+01 
-2.6385748e-01 6.9645494e-01 4.1651920e+01 
8.0488607e-02 6.2478805e-01 4.1676235e+01 
2.6870471e-01 4.4547972e-01 4.1752304e+01 
9.6269641e-03 5.0785345e-01 4.1665993e+01 
2.4764967e-01 3.8646612e-01 4.1743168e+01 
-3.0029076e-01 9.2101562e-01 4.1574532e+01 
-3.9388368e-01 8.4456980e-01 4.1572796e+01 
5.1745731e-01 2.8556010e-01 4.1803486e+01 
-2.7231261e-02 7.4254233e-01 4.1569210e+01 
-1.3049847e-01 5.9228569e-01 4.1558201e+01 
-4.3632016e-01 9.6401632e-01 4.1501339e+01 
-1.5309690e-01 8.4393430e-01 4.1483204e+01 
-2.6199502e-01 6.9349992e-01 4.1471333e+01 
-2.9867104e-01 9.2115986e-01 4.1428024e+01 
-3.9364263e-01 8.4372103e-01 4.1426289e+01 
1.1125199e-01 5.9476525e-01 4.1477348e+01 
4.7217656e-02 4.8404291e-01 4.1467384e+01 
-4.3631962e-01 9.6401310e-01 4.1354160e+01 
-2.0839609e-02 7.3971421e-01 4.1386261e+01 
-1.2561750e-01 5.8709091e-01 4.1375404e+01 
5.3156406e-01 2.7540097e-01 4.1556946e+01 
-1.4915068e-01 8.4358656e-01 4.1298138e+01 
-2.9703063e-01 9.2128879e-01 4.1280167e+01 
-3.9338648e-01 8.4284443e-01 4.1278431e+01 
-2.6009262e-01 6.9047421e-01 4.1286449e+01 
2.9365057e-01 4.2687622e-01 4.1391586e+01 
9.7278498e-02 6.1333776e-01 4.1311302e+01 
2.7470219e-01 3.6807936e-01 4.1382729e+01 
2.5872495e-02 4.9389899e-01 4.1301384e+01 
-4.3631911e-01 9.6401012e-01 4.1205620e+01 
-1.4274905e-02 7.3672432e-01 4.1198803e+01 
-1.2056758e-01 5.8173001e-01 4.1188221e+01 
-2.9536936e-01 9.2140132e-01 4.1130928e+01 
[...]
POINT_DATA 4496
FIELD FieldData 5
DISPLACEMENT 3 4496  float
1.4598460e-01 1.3448606e-01 -1.0892284e-03 
1.4522482e-01 1.3371117e-01 -1.0845081e-03 
1.4602423e-01 1.3457625e-01 -1.4687624e-03 
1.4608426e-01 1.3452807e-01 -6.3531980e-04 
1.4492096e-01 1.3334535e-01 -6.5642677e-04 
1.4488022e-01 1.3340895e-01 -1.4575449e-03 
1.4445975e-01 1.3293090e-01 -1.0797515e-03 
1.4607596e-01 1.3466191e-01 -1.7196730e-03 
1.4616589e-01 1.3460380e-01 -5.7864649e-04 
1.4530936e-01 1.3388224e-01 -1.7315481e-03 
1.4539361e-01 1.3381554e-01 -5.6907890e-04 
1.4415349e-01 1.3256232e-01 -6.4926618e-04 
1.4411218e-01 1.3262689e-01 -1.4624291e-03 
1.4452849e-01 1.3308802e-01 -1.7436281e-03 
1.4613047e-01 1.3473561e-01 -1.8580721e-03 
1.4460737e-01 1.3301307e-01 -5.5935408e-04 
1.4368927e-01 1.3214512e-01 -1.0749543e-03 
1.4622399e-01 1.3467754e-01 -6.8934512e-04 
1.4418650e-01 1.3262175e-01 -8.4582262e-04 
1.4519411e-01 1.3378590e-01 -1.8922926e-03 
1.4527920e-01 1.3372086e-01 -7.3594926e-04 
1.4333871e-01 1.3183929e-01 -1.4673072e-03 
1.4338055e-01 1.3177377e-01 -6.4201438e-04 
1.4373288e-01 1.3227883e-01 -1.7559130e-03 
1.4380671e-01 1.3219589e-01 -5.4945057e-04 
1.4620100e-01 1.3480958e-01 -1.8737382e-03 
1.4417043e-01 1.3274276e-01 -1.8933573e-03 
1.4291334e-01 1.3135375e-01 -1.0701019e-03 
1.4627865e-01 1.3476461e-01 -9.2825695e-04 
1.4425251e-01 1.3266651e-01 -6.7411090e-04 
1.4292206e-01 1.3145413e-01 -1.7683905e-03 
1.4255968e-01 1.3104601e-01 -1.4722332e-03 
1.4260212e-01 1.3097958e-01 -6.3467555e-04 
1.4464118e-01 1.3322118e-01 -1.8832334e-03 
1.4299114e-01 1.3136354e-01 -5.3938362e-04 
1.4336781e-01 1.3192648e-01 -1.9063314e-03 
1.4470828e-01 1.3316885e-01 -9.6290547e-04 
1.4536314e-01 1.3395463e-01 -1.8652785e-03 
1.4344509e-01 1.3184276e-01 -6.6647644e-04 
1.4542101e-01 1.3391493e-01 -1.1134620e-03 
1.4213178e-01 1.3055672e-01 -1.0652225e-03 
1.4628136e-01 1.3489236e-01 -1.8800177e-03 
1.4389123e-01 1.3245930e-01 -1.9017142e-03 
1.4398162e-01 1.3242145e-01 -9.1024966e-04 
1.4633405e-01 1.3486503e-01 -1.2630438e-03 
1.4209548e-01 1.3061339e-01 -1.7810568e-03 
1.4254972e-01 1.3109444e-01 -1.9194819e-03 
1.4177498e-01 1.3024703e-01 -1.4771625e-03 
1.4181799e-01 1.3017963e-01 -6.2718336e-04 
1.4216022e-01 1.3051550e-01 -5.2913377e-04 
1.4262255e-01 1.3100359e-01 -6.5876445e-04 
1.4548616e-01 1.3409162e-01 -1.9535401e-03 
1.4303890e-01 1.3159055e-01 -1.9010507e-03 
1.4551741e-01 1.3406605e-01 -1.5163253e-03 
1.4134452e-01 1.2975384e-01 -1.0602674e-03 
1.4309554e-01 1.3152492e-01 -9.5913658e-04 
1.4423722e-01 1.3281639e-01 -1.9357284e-03 
1.4427337e-01 1.3278374e-01 -1.4056669e-03 
1.4636680e-01 1.3499685e-01 -2.0121709e-03 
1.4639342e-01 1.3498528e-01 -1.7176176e-03 
1.4171565e-01 1.3024612e-01 -1.9328167e-03 
1.4228512e-01 1.3082480e-01 -1.9200273e-03 
1.4125261e-01 1.2975611e-01 -1.7939190e-03 
1.4098451e-01 1.2944216e-01 -1.4821320e-03 
1.4102812e-01 1.2937385e-01 -6.1962294e-04 
1.4178436e-01 1.3014853e-01 -6.5102166e-04 
1.4234142e-01 1.3074934e-01 -9.0456882e-04 
1.4131333e-01 1.2965128e-01 -5.1871926e-04 
1.4055142e-01 1.2894510e-01 -1.0552914e-03 
1.4274599e-01 1.3129880e-01 -1.9532167e-03 
1.4277261e-01 1.3125715e-01 -1.4272564e-03 
1.4086503e-01 1.2938100e-01 -1.9462800e-03 
1.4092997e-01 1.2927699e-01 -6.4318441e-04 
1.4018817e-01 1.2863137e-01 -1.4870855e-03 
1.4023238e-01 1.2856214e-01 -6.1195419e-04 
1.4137390e-01 1.2989601e-01 -1.9190939e-03 
1.4039291e-01 1.2888169e-01 -1.8069416e-03 
1.4142136e-01 1.2981856e-01 -9.5607532e-04 
1.4044999e-01 1.2877029e-01 -5.0812151e-04 
1.4644319e-01 1.3513128e-01 -2.4426912e-03 
1.3975237e-01 1.2813032e-01 -1.0502917e-03 
1.4502873e-01 1.3369165e-01 -2.4582753e-03 
1.4059004e-01 1.2909974e-01 -1.9389919e-03 
1.4063792e-01 1.2901293e-01 -8.9941168e-04 
1.3999732e-01 1.2849846e-01 -1.9599006e-03 
1.3943063e-01 1.2774743e-01 -6.2791747e-04 
1.3938576e-01 1.2781441e-01 -1.4921121e-03 
1.4005890e-01 1.2838851e-01 -6.3532317e-04 
1.3951579e-01 1.2798963e-01 -1.8201241e-03 
1.3956967e-01 1.2787206e-01 -4.9728242e-04 
1.4360788e-01 1.3224550e-01 -2.4738691e-03 
1.4106980e-01 1.2959281e-01 -1.9708013e-03 
1.3894723e-01 1.2730944e-01 -1.0452571e-03 
1.4097512e-01 1.2942812e-01 -1.4477586e-03 
1.3964181e-01 1.2813316e-01 -1.9372889e-03 
1.3911189e-01 1.2759796e-01 -1.9736304e-03 
1.3857737e-01 1.2699139e-01 -1.4970636e-03 
1.3862275e-01 1.2692030e-01 -5.9630373e-04 
1.3968150e-01 1.2804554e-01 -9.5381233e-04 
1.3917048e-01 1.2748241e-01 -6.2735687e-04 
1.3862064e-01 1.2707920e-01 -1.8334530e-03 
1.4218052e-01 1.3079248e-01 -2.4894222e-03 
1.3867168e-01 1.2695590e-01 -4.8631764e-04 
1.3813607e-01 1.2648228e-01 -1.0400958e-03 
1.3882576e-01 1.2730427e-01 -1.9580312e-03 
1.3886669e-01 1.2720782e-01 -8.9488894e-04 
1.3776271e-01 1.2616204e-01 -1.5020937e-03 
1.3780876e-01 1.2609012e-01 -5.8837800e-04 
1.3820815e-01 1.2667882e-01 -1.9874827e-03 
1.3826422e-01 1.2655823e-01 -6.1940798e-04 
1.3928647e-01 1.2777767e-01 -1.9886501e-03 
1.3770682e-01 1.2614982e-01 -1.8469080e-03 
1.3928682e-01 1.2770903e-01 -1.4574914e-03 
1.3775559e-01 1.2602139e-01 -4.7517446e-04 
1.4074658e-01 1.2933286e-01 -2.5050172e-03 
1.3731854e-01 1.2564898e-01 -1.0349345e-03 
1.3706659e-01 1.2532952e-01 -5.5141689e-04 
1.3694179e-01 1.2532645e-01 -1.5070210e-03 
1.3783790e-01 1.2629737e-01 -1.9555218e-03 
1.3787135e-01 1.2620139e-01 -9.5251261e-04 
1.3728540e-01 1.2574051e-01 -2.0014311e-03 
1.3733937e-01 1.2561525e-01 -6.1132334e-04 
1.3677379e-01 1.2520105e-01 -1.8604939e-03 
1.3649471e-01 1.2480923e-01 -1.0296742e-03 
1.3682052e-01 1.2506758e-01 -4.6377300e-04 
1.3930584e-01 1.2786631e-01 -2.5204087e-03 
1.3698739e-01 1.2543359e-01 -1.9770293e-03 
1.3621111e-01 1.2445582e-01 -5.3201267e-04 
1.3611446e-01 1.2448435e-01 -1.5118733e-03 
1.3702297e-01 1.2532942e-01 -8.9110975e-04 
1.3750903e-01 1.2596902e-01 -2.0082002e-03 
1.3634317e-01 1.2478229e-01 -2.0155152e-03 
1.3751042e-01 1.2590338e-01 -1.4894563e-03 
1.3639542e-01 1.2465293e-01 -6.0338195e-04 
1.3566445e-01 1.2396292e-01 -1.0242504e-03 
1.3582067e-01 1.2423195e-01 -1.8742764e-03 
1.3586600e-01 1.2409423e-01 -4.5223444e-04 
1.3528048e-01 1.2363570e-01 -1.5168195e-03 
1.3532259e-01 1.2354989e-01 -5.2164576e-04 
1.3785854e-01 1.2639336e-01 -2.5356242e-03 
1.3595708e-01 1.2438353e-01 -1.9736199e-03 
1.3598602e-01 1.2428124e-01 -9.5223065e-04 
1.3538054e-01 1.2380355e-01 -2.0295053e-03 
1.3482749e-01 1.2311017e-01 -1.0188789e-03 
1.3543156e-01 1.2367056e-01 -5.9525890e-04 
1.3484690e-01 1.2324196e-01 -1.8880672e-03 
1.3489127e-01 1.2310048e-01 -4.4047949e-04 
1.3443996e-01 1.2278049e-01 -1.5216842e-03 
1.3443489e-01 1.2264658e-01 -5.2342954e-04 
1.3506961e-01 1.2348235e-01 -1.9957460e-03 
1.3510181e-01 1.2337271e-01 -8.8813575e-04 
1.3398391e-01 1.2225083e-01 -1.0134380e-03 
1.3536900e-01 1.2379098e-01 -2.0245737e-03 
1.3439691e-01 1.2280358e-01 -2.0435180e-03 
1.3537757e-01 1.2373026e-01 -1.4839852e-03 
1.3444720e-01 1.2266758e-01 -5.8714545e-04 
1.3640408e-01 1.2491313e-01 -2.5505614e-03 
1.3385169e-01 1.2223034e-01 -1.9019408e-03 
1.3389561e-01 1.2208565e-01 -4.2852855e-04 
1.3359277e-01 1.2191869e-01 -1.5264623e-03 
1.3364179e-01 1.2184253e-01 -5.4688897e-04 
1.3399389e-01 1.2238641e-01 -1.9914852e-03 
1.3313355e-01 1.2138462e-01 -1.0079994e-03 
1.3402019e-01 1.2227999e-01 -9.5328543e-04 
1.3339150e-01 1.2178166e-01 -2.0575463e-03 
1.3344175e-01 1.2164319e-01 -5.7888863e-04 
1.3273843e-01 1.2104969e-01 -1.5314588e-03 
1.3277750e-01 1.2096474e-01 -5.5930449e-04 
1.3283426e-01 1.2119634e-01 -1.9158500e-03 
1.3494274e-01 1.2342604e-01 -2.5652896e-03 
1.3287848e-01 1.2104920e-01 -4.1623841e-04 
1.3306689e-01 1.2144541e-01 -2.0140752e-03 
1.3227592e-01 1.2051138e-01 -1.0025915e-03 
1.3309757e-01 1.2133250e-01 -8.8622613e-04 
1.3237257e-01 1.2064792e-01 -1.3020873e-03 
1.3348961e-01 1.2187908e-01 -2.0401699e-03 
1.3349831e-01 1.2181805e-01 -1.4930753e-03 
1.3236356e-01 1.2073712e-01 -2.0715862e-03 
1.3241421e-01 1.2059677e-01 -5.7058601e-04 
1.3187705e-01 1.2017377e-01 -1.5363243e-03 
1.3192722e-01 1.2009594e-01 -5.2975031e-04 
1.3179378e-01 1.2013932e-01 -1.9299131e-03 
1.3183890e-01 1.1998990e-01 -4.0368448e-04 
1.3141125e-01 1.1963097e-01 -9.9695637e-04 
1.3347468e-01 1.2193266e-01 -2.5797961e-03 
1.3194227e-01 1.2030016e-01 -2.0089492e-03 
1.3196805e-01 1.2019211e-01 -9.5567573e-04 
1.3111961e-01 1.1926916e-01 -4.8903254e-04 
1.3100867e-01 1.1929084e-01 -1.5409741e-03 
1.3131204e-01 1.1966874e-01 -2.0856010e-03 
1.3136373e-01 1.1952719e-01 -5.6217366e-04 
1.3053946e-01 1.1874337e-01 -9.9111523e-04 
1.3072944e-01 1.1905805e-01 -1.9439637e-03 
1.3077587e-01 1.1890727e-01 -3.9109276e-04 
1.3097267e-01 1.1931638e-01 -2.0318078e-03 
1.3156927e-01 1.1992834e-01 -2.0709578e-03 
1.3100392e-01 1.1920263e-01 -8.8540063e-04 
1.3156086e-01 1.1985748e-01 -1.5806418e-03 
1.3013279e-01 1.1840062e-01 -1.5456909e-03 
1.3018437e-01 1.1832114e-01 -5.1190529e-04 
1.3200018e-01 1.2043355e-01 -2.5939329e-03 
1.3023625e-01 1.1857592e-01 -2.0994858e-03 
1.3028970e-01 1.1843399e-01 -5.5401254e-04 
1.2966037e-01 1.1784889e-01 -9.8530692e-04 
1.2964022e-01 1.1795197e-01 -1.9578491e-03 
1.2968877e-01 1.1780059e-01 -3.7834467e-04 
1.2924978e-01 1.1750323e-01 -1.5502198e-03 
1.2930189e-01 1.1742320e-01 -5.0301832e-04 
1.2979543e-01 1.1811809e-01 -2.0256231e-03 
1.2982319e-01 1.1801134e-01 -9.5947098e-04 
1.2877373e-01 1.1694726e-01 -9.7961421e-04 
1.2913524e-01 1.1745796e-01 -2.1131136e-03 
1.2919107e-01 1.1731623e-01 -5.4553326e-04 
1.3051808e-01 1.1892677e-01 -2.6074096e-03 
1.2852535e-01 1.1682025e-01 -1.9716951e-03 
1.2835915e-01 1.1659872e-01 -1.5548151e-03 
1.2841168e-01 1.1651769e-01 -4.9381022e-04 
1.2857667e-01 1.1666880e-01 -3.6492210e-04 
1.2940568e-01 1.1773030e-01 -2.0939573e-03 
1.2878007e-01 1.1708834e-01 -2.0486412e-03 
1.2939848e-01 1.1766303e-01 -1.6186043e-03 
1.2881479e-01 1.1697701e-01 -8.8571891e-04 
1.2787955e-01 1.1603771e-01 -9.7373850e-04 
1.2800822e-01 1.1631370e-01 -2.1267824e-03 
1.2806678e-01 1.1617295e-01 -5.3704157e-04 
1.2746072e-01 1.1568609e-01 -1.5594253e-03 
1.2751412e-01 1.1560450e-01 -4.8467788e-04 
1.2738375e-01 1.1566158e-01 -1.9855974e-03 
1.2743859e-01 1.1551111e-01 -3.5157168e-04 
1.2902907e-01 1.1741373e-01 -2.6205722e-03 
1.2697746e-01 1.1512073e-01 -9.6791348e-04 
1.2754625e-01 1.1583326e-01 -2.0415096e-03 
1.2757827e-01 1.1573052e-01 -9.6501451e-04 
1.2655453e-01 1.1476617e-01 -1.5639826e-03 
1.2660839e-01 1.1468363e-01 -4.7533089e-04 
1.2685366e-01 1.1514204e-01 -2.1399721e-03 
1.2691629e-01 1.1500333e-01 -5.2869698e-04 
1.2606761e-01 1.1419590e-01 -9.6178020e-04 
1.2621452e-01 1.1447528e-01 -1.9991619e-03 
1.2627335e-01 1.1432652e-01 -3.3775004e-04 
1.2713829e-01 1.1542831e-01 -2.1183281e-03 
1.2713502e-01 1.1536760e-01 -1.6605979e-03 
1.2638056e-01 1.1464968e-01 -2.0485534e-03 
1.2753327e-01 1.1589459e-01 -2.6333085e-03 
1.2564048e-01 1.1383824e-01 -1.5680874e-03 
1.2569503e-01 1.1375536e-01 -4.6618178e-04 
1.2641588e-01 1.1455067e-01 -9.6836337e-04 
1.2567128e-01 1.1394238e-01 -2.1529843e-03 
1.2573808e-01 1.1380630e-01 -5.2019680e-04 
1.2514974e-01 1.1326379e-01 -9.5582439e-04 
1.2501618e-01 1.1326019e-01 -2.0127040e-03 
1.2508060e-01 1.1311418e-01 -3.2375293e-04 
1.2471848e-01 1.1290326e-01 -1.5722177e-03 
1.2477335e-01 1.1281924e-01 -4.5664355e-04 
1.2518646e-01 1.1343765e-01 -2.0555698e-03 
1.2469947e-01 1.1279435e-01 -8.5929397e-04 
1.2522587e-01 1.1334314e-01 -9.7245880e-04 
1.2422385e-01 1.1232358e-01 -9.4949460e-04 
1.2602930e-01 1.1436702e-01 -2.6452246e-03 
1.2527032e-01 1.1353032e-01 -2.1172676e-03 
1.2445939e-01 1.1271355e-01 -2.1650842e-03 
1.2528782e-01 1.1348348e-01 -1.5964770e-03 
1.2453169e-01 1.1258139e-01 -5.1167316e-04 
1.2378810e-01 1.1195962e-01 -1.5760036e-03 
1.2384365e-01 1.1187533e-01 -4.4704188e-04 
1.2378875e-01 1.1201594e-01 -2.0252811e-03 
1.2385844e-01 1.1187332e-01 -3.1007084e-04 
1.2328976e-01 1.1137579e-01 -9.4347727e-04 
1.2396269e-01 1.1219618e-01 -2.0622828e-03 
1.2400685e-01 1.1210708e-01 -9.7686076e-04 
1.2321740e-01 1.1145471e-01 -2.1772732e-03 
1.2284976e-01 1.1100831e-01 -1.5800007e-03 
1.2290578e-01 1.1092336e-01 -4.3730010e-04 
1.2329559e-01 1.1132721e-01 -5.0293299e-04 
1.2451801e-01 1.1283392e-01 -2.6570384e-03 
1.2252986e-01 1.1074066e-01 -2.0384702e-03 
1.2234722e-01 1.1041956e-01 -9.3718158e-04 
1.2364267e-01 1.1184020e-01 -1.8066249e-03 
1.2360983e-01 1.1185607e-01 -2.2055523e-03 
1.2260643e-01 1.1060273e-01 -2.9517937e-04 
1.2270802e-01 1.1092413e-01 -2.0682670e-03 
1.2275752e-01 1.1084091e-01 -9.8201819e-04 
1.2190257e-01 1.1004868e-01 -1.5839876e-03 
1.2195913e-01 1.0996310e-01 -4.2747174e-04 
1.2194355e-01 1.1016425e-01 -2.1889745e-03 
1.2202897e-01 1.1004251e-01 -4.9433758e-04 
1.2139571e-01 1.0945481e-01 -9.3077827e-04 
1.2299974e-01 1.1129396e-01 -2.6674205e-03 
1.2123822e-01 1.0943301e-01 -2.0513281e-03 
1.2132292e-01 1.0930079e-01 -2.7994983e-04 
1.2094720e-01 1.0908147e-01 -1.5869046e-03 
1.2100413e-01 1.0899499e-01 -4.1794329e-04 
1.2212110e-01 1.1029802e-01 -1.8133079e-03 
1.2208888e-01 1.1031454e-01 -2.2153081e-03 
1.2140061e-01 1.0959949e-01 -2.0740815e-03 
1.2144535e-01 1.0951136e-01 -9.7984332e-04 
1.2073061e-01 1.0879537e-01 -1.0468413e-03 
1.2043715e-01 1.0848351e-01 -9.2407735e-04 
1.2064693e-01 1.0885173e-01 -2.2005362e-03 
1.2074684e-01 1.0874211e-01 -4.7682124e-04 
1.1999138e-01 1.0811282e-01 -1.5810002e-03 
1.2004859e-01 1.0802735e-01 -4.1168599e-04 
1.1993641e-01 1.0811584e-01 -2.0624914e-03 
1.2147438e-01 1.0974807e-01 -2.6770628e-03 
1.2004288e-01 1.0800380e-01 -2.6560732e-04 
1.1948574e-01 1.0752034e-01 -9.1795460e-04 
1.2006816e-01 1.0825093e-01 -2.0837164e-03 
1.2014982e-01 1.0819557e-01 -9.4614387e-04 
1.2059663e-01 1.0875449e-01 -1.8221752e-03 
1.2056509e-01 1.0877149e-01 -2.2251555e-03 
1.1946023e-01 1.0750874e-01 -1.0389058e-03 
1.1904302e-01 1.0715268e-01 -1.5748080e-03 
1.1935500e-01 1.0754478e-01 -2.2120054e-03 
1.1909976e-01 1.0706689e-01 -4.0526161e-04 
1.1947646e-01 1.0745445e-01 -4.5508859e-04 
1.1854156e-01 1.0656436e-01 -9.1123855e-04 
1.1865812e-01 1.0682338e-01 -2.0728540e-03 
1.1878376e-01 1.0672919e-01 -2.5166076e-04 
1.1994889e-01 1.0820317e-01 -2.6859140e-03 
1.1878646e-01 1.0695530e-01 -2.0954933e-03 
1.1888967e-01 1.0691642e-01 -9.1089541e-04 
1.1810097e-01 1.0619916e-01 -1.5688568e-03 
1.1815787e-01 1.0611424e-01 -3.9901159e-04 
1.1898826e-01 1.0716590e-01 -2.1495477e-03 
1.1903650e-01 1.0714923e-01 -1.6057662e-03 
1.1808615e-01 1.0626247e-01 -2.2226966e-03 
1.1822629e-01 1.0618775e-01 -4.3384399e-04 
1.1789091e-01 1.0592073e-01 -1.0276019e-03 
1.1760404e-01 1.0561631e-01 -9.0492039e-04 
1.1754487e-01 1.0547561e-01 -2.3760692e-04 
1.1740173e-01 1.0555398e-01 -2.0823136e-03 
1.1716625e-01 1.0525346e-01 -1.5623356e-03 
1.1722296e-01 1.0516934e-01 -3.9294147e-04 
1.1764922e-01 1.0565856e-01 -8.7659416e-04 
1.1752695e-01 1.0568307e-01 -2.1073048e-03 
1.1842638e-01 1.0666331e-01 -2.6943460e-03 
1.1667309e-01 1.0467555e-01 -8.9888141e-04 
1.1699589e-01 1.0494220e-01 -4.1316365e-04 
1.1683891e-01 1.0500324e-01 -2.2326598e-03 
1.1752379e-01 1.0569642e-01 -2.2439384e-03 
1.1741988e-01 1.0551909e-01 -1.6425635e-03 
1.1623798e-01 1.0431521e-01 -1.5557063e-03 
1.1627472e-01 1.0421245e-01 -3.9695526e-04 
1.1632548e-01 1.0424216e-01 -2.2288921e-04 
1.1616720e-01 1.0430799e-01 -2.0918658e-03 
1.1591840e-01 1.0393168e-01 -1.0527138e-03 
1.1574867e-01 1.0374124e-01 -8.9222251e-04 
1.1642766e-01 1.0442083e-01 -8.4379979e-04 
1.1616243e-01 1.0430128e-01 -2.0842671e-03 
1.1578409e-01 1.0371712e-01 -3.9382058e-04 
1.1561333e-01 1.0376602e-01 -2.2417086e-03 
1.1531585e-01 1.0338320e-01 -1.5485556e-03 
1.1690810e-01 1.0512965e-01 -2.7023335e-03 
1.1537212e-01 1.0329989e-01 -3.8039242e-04 
1.1526367e-01 1.0326355e-01 -9.9086983e-04 
1.1603130e-01 1.0411655e-01 -1.6423179e-03 
1.1483070e-01 1.0281455e-01 -8.8596094e-04 
1.1512383e-01 1.0302929e-01 -2.1041607e-04 
1.1495343e-01 1.0308310e-01 -2.0993755e-03 
1.1600748e-01 1.0416567e-01 -2.2515899e-03 
1.1522529e-01 1.0320406e-01 -8.1121613e-04 
1.1507273e-01 1.0320627e-01 -2.1284749e-03 
1.1440033e-01 1.0245889e-01 -1.5418932e-03 
1.1445663e-01 1.0237604e-01 -3.7427148e-04 
1.1459132e-01 1.0251213e-01 -3.7407232e-04 
1.1440837e-01 1.0255060e-01 -2.2495640e-03 
1.1411472e-01 1.0208648e-01 -8.3536952e-04 
1.1391877e-01 1.0189462e-01 -8.7971985e-04 
1.1539164e-01 1.0359900e-01 -2.7090581e-03 
1.1394114e-01 1.0183561e-01 -1.9649317e-04 
1.1375964e-01 1.0187986e-01 -2.1067900e-03 
1.1464009e-01 1.0269209e-01 -1.4734330e-03 
1.1451141e-01 1.0263874e-01 -2.1158054e-03 
1.1349075e-01 1.0154133e-01 -1.5347080e-03 
1.1404120e-01 1.0200603e-01 -7.7989948e-04 
1.1346517e-01 1.0136966e-01 -3.1250005e-04 
1.1387639e-01 1.0200067e-01 -2.1388575e-03 
1.1301258e-01 1.0098103e-01 -8.7377994e-04 
1.1341614e-01 1.0132547e-01 -3.5446917e-04 
1.1322313e-01 1.0135640e-01 -2.2566975e-03 
1.1264348e-01 1.0054830e-01 -3.6243018e-04 
1.1256997e-01 1.0060517e-01 -1.4636186e-03 
1.1277605e-01 1.0066052e-01 -1.8317798e-04 
1.1258482e-01 1.0069676e-01 -2.1134207e-03 
1.1387778e-01 1.0207156e-01 -2.7141613e-03 
1.1237000e-01 1.0036767e-01 -1.1618399e-03 
1.1287477e-01 1.0082770e-01 -7.4959471e-04 
1.1269905e-01 1.0081495e-01 -2.1487284e-03 
1.1211278e-01 1.0007467e-01 -8.6807023e-04 
1.1225826e-01 1.0015849e-01 -3.3649366e-04 
1.1298285e-01 1.0111504e-01 -2.2637711e-03 
1.1301120e-01 1.0109604e-01 -1.8616054e-03 
1.1187898e-01 9.9771477e-02 -2.9859558e-04 
1.1205642e-01 1.0018104e-01 -2.2627504e-03 
1.1177551e-01 9.9821523e-02 -1.6023340e-03 
1.1262352e-01 1.0062766e-01 -1.2032622e-03 
1.1242741e-01 1.0053375e-01 -2.0860459e-03 
1.1162744e-01 9.9503770e-02 -1.7069589e-04 
1.1143009e-01 9.9533811e-02 -2.1173228e-03 
1.1121942e-01 9.9174909e-02 -8.6195196e-04 
1.1172529e-01 9.9666983e-02 -7.2011928e-04 
1.1154158e-01 9.9650100e-02 -2.1577585e-03 
1.1236610e-01 1.0054755e-01 -2.7178337e-03 
1.1089334e-01 9.8777115e-02 -2.7062692e-04 
1.1079164e-01 9.8832332e-02 -1.6083199e-03 
1.1111761e-01 9.9008277e-02 -3.1857975e-04 
1.1090936e-01 9.9027120e-02 -2.2685658e-03 
1.1033201e-01 9.8281488e-02 -8.5573707e-04 
1.1147496e-01 9.9596739e-02 -2.2678606e-03 
1.1150245e-01 9.9577509e-02 -1.8666314e-03 
1.1049615e-01 9.8364078e-02 -1.5722461e-04 
1.1029330e-01 9.8390989e-02 -2.1220958e-03 
1.1059254e-01 9.8524205e-02 -6.9146091e-04 
1.0983982e-01 9.7872235e-02 -1.5850154e-03 
1.1027849e-01 9.8382957e-02 -2.1902150e-03 
1.1056565e-01 9.8552756e-02 -1.1667486e-03 
1.0976749e-01 9.7643971e-02 -2.6120179e-04 
1.0999309e-01 9.7875968e-02 -3.0112447e-04 
1.0978051e-01 9.7891666e-02 -2.2728054e-03 
1.0944977e-01 9.7394481e-02 -8.4968586e-04 
1.1085872e-01 9.9029295e-02 -2.7199497e-03 
1.0925604e-01 9.7229369e-02 -1.1081677e-03 
1.0938053e-01 9.7242504e-02 -1.4467452e-04 
1.0988159e-01 9.7971857e-02 -2.0865898e-03 
1.0904613e-01 9.7058609e-02 -1.4463218e-03 
1.0917429e-01 9.7265601e-02 -2.1258155e-03 
1.0908979e-01 9.6972771e-02 -3.3967037e-04 
1.0947581e-01 9.7398914e-02 -6.6347700e-04 
1.0997078e-01 9.8083243e-02 -2.2704210e-03 
1.0999773e-01 9.8063774e-02 -1.8699149e-03 
1.0928096e-01 9.7377494e-02 -2.1735763e-03 
1.0874923e-01 9.6615836e-02 -2.0883844e-04 
1.0857361e-01 9.6513994e-02 -8.4390014e-04 
1.0888448e-01 9.6760988e-02 -2.8328673e-04 
1.0866886e-01 9.6774608e-02 -2.2765410e-03 
1.0834717e-01 9.6228130e-02 -3.4494637e-04 
1.0816052e-01 9.6173711e-02 -1.4868480e-03 
1.0828071e-01 9.6136473e-02 -1.3216567e-04 
1.0807224e-01 9.6159264e-02 -2.1287326e-03 
1.0935424e-01 9.7516023e-02 -2.7214647e-03 
1.0837448e-01 9.6290104e-02 -6.3633313e-04 
1.0770302e-01 9.5639512e-02 -8.3781505e-04 
1.0805669e-01 9.6151069e-02 -2.2028252e-03 
1.0762063e-01 9.5485911e-02 -2.3208093e-04 
1.0834657e-01 9.6326865e-02 -1.2003490e-03 
1.0779113e-01 9.5661953e-02 -2.6671303e-04 
1.0762437e-01 9.5569000e-02 -9.1481366e-04 
1.0735220e-01 9.5375858e-02 -1.6033555e-03 
1.0846943e-01 9.6574649e-02 -2.2724990e-03 
1.0757424e-01 9.5675409e-02 -2.2796148e-03 
1.0849576e-01 9.6555047e-02 -1.8729741e-03 
1.0719576e-01 9.5047660e-02 -1.2061754e-04 
1.0767362e-01 9.5751897e-02 -2.0767362e-03 