# vtk DataFile Version 4.0
vtk output
ASCII
DATASET UNSTRUCTURED_GRID
POINTS 4496 float
-4.3633327e-01 9.6409470e-01 4.4200001e+01 
-4.3633258e-01 9.6409065e-01 4.4074627e+01 
-3.2152572e-01 9.1279918e-01 4.4200001e+01 
-3.8534868e-01 8.4052670e-01 4.4200001e+01 
-3.9589554e-01 8.5545403e-01 4.4010014e+01 
-3.2616228e-01 9.1667932e-01 4.4011734e+01 
-4.3633190e-01 9.6408653e-01 4.3948376e+01 
-2.1293370e-01 8.4677851e-01 4.4200001e+01 
-2.9042658e-01 7.3813015e-01 4.4200001e+01 
-2.1010752e-01 8.4669363e-01 4.4073502e+01 
-2.8908840e-01 7.3604190e-01 4.4072292e+01 
-3.9589015e-01 8.5505831e-01 4.3883316e+01 
-3.2487559e-01 9.1697580e-01 4.3885036e+01 
-2.0722924e-01 8.4660655e-01 4.3944645e+01 
-1.1981077e-01 7.7773046e-01 4.4200001e+01 
-2.8772619e-01 7.3391593e-01 4.3942276e+01 
-4.3633121e-01 9.6408242e-01 4.3821228e+01 
-1.9739023e-01 6.6468561e-01 4.4200001e+01 
-2.9444304e-01 7.8727525e-01 4.3879974e+01 
-8.7554991e-02 7.5255024e-01 4.4042213e+01 
-1.6445170e-01 6.4084798e-01 4.4041008e+01 
-3.2357255e-01 9.1726828e-01 4.3757431e+01 
-3.9587301e-01 8.5463828e-01 4.3755711e+01 
-2.0429766e-01 8.4651643e-01 4.3813354e+01 
-2.8633916e-01 7.3175091e-01 4.3809875e+01 
-2.6899619e-02 6.8901783e-01 4.4200001e+01 
-1.0567340e-01 7.7152997e-01 4.3875790e+01 
-4.3633053e-01 9.6407831e-01 4.3693161e+01 
-8.7133333e-02 5.9509218e-01 4.4200001e+01 
-1.8777622e-01 6.5475601e-01 4.3873402e+01 
-2.0131156e-01 8.4642249e-01 4.3679543e+01 
-3.2225290e-01 9.1755641e-01 4.3628902e+01 
-3.9584404e-01 8.5419410e-01 4.3627178e+01 
-1.0114321e-03 6.6670936e-01 4.3939713e+01 
-2.8492665e-01 7.2954547e-01 4.3675007e+01 
-1.0131179e-01 7.7015632e-01 4.3743176e+01 
-6.0682178e-02 5.7631296e-01 4.3938457e+01 
3.9444737e-02 6.2338209e-01 4.4053139e+01 
-1.8470748e-01 6.5131217e-01 4.3739727e+01 
-7.0938184e-03 5.4737431e-01 4.4052326e+01 
-4.3632981e-01 9.6407413e-01 4.3564159e+01 
7.6947339e-02 5.8804804e-01 4.4200001e+01 
-1.2721874e-02 6.8194175e-01 4.3817982e+01 
-7.7214435e-02 5.8474159e-01 4.3819649e+01 
4.0195532e-02 5.2425718e-01 4.4200001e+01 
-1.9826968e-01 8.4632379e-01 4.3543118e+01 
-9.6842363e-02 7.6872379e-01 4.3607994e+01 
-3.2091641e-01 9.1783977e-01 4.3499420e+01 
-3.9580306e-01 8.5372573e-01 4.3497700e+01 
-2.8348783e-01 7.2729832e-01 4.3537586e+01 
-1.8155001e-01 6.4778340e-01 4.3603539e+01 
1.5678726e-01 5.2239102e-01 4.4060219e+01 
1.0298219e-02 6.6009766e-01 4.3674484e+01 
1.3250886e-01 4.7546524e-01 4.4058990e+01 
-4.3632913e-01 9.6407002e-01 4.3434200e+01 
-5.0139543e-02 5.6696451e-01 4.3671154e+01 
1.3504514e-01 5.4209155e-01 4.3856747e+01 
1.0361936e-01 4.8715758e-01 4.3855240e+01 
2.0846681e-01 4.8028421e-01 4.4200001e+01 
1.9279444e-01 4.4799727e-01 4.4200001e+01 
-9.2261828e-02 7.6722860e-01 4.3470158e+01 
-1.4701239e-03 6.7547697e-01 4.3552124e+01 
-1.9517080e-01 8.4621930e-01 4.3403992e+01 
-3.1956279e-01 9.1811794e-01 4.3368977e+01 
-3.9574999e-01 8.5323322e-01 4.3367252e+01 
-1.7830023e-01 6.4416617e-01 4.3464752e+01 
-6.7131944e-02 5.7555372e-01 4.3547829e+01 
-2.8202194e-01 7.2500783e-01 4.3397518e+01 
-4.3632844e-01 9.6406585e-01 4.3303261e+01 
1.5138821e-01 5.3037512e-01 4.3609200e+01 
1.2119007e-01 4.7490793e-01 4.3606068e+01 
-8.7566733e-02 7.6566672e-01 4.3329563e+01 
-1.7495437e-01 6.4045686e-01 4.3323273e+01 
-3.1819177e-01 9.1839045e-01 4.3237537e+01 
-3.9568463e-01 8.5271639e-01 4.3235813e+01 
2.2269404e-02 6.5294570e-01 4.3398811e+01 
-1.9201367e-01 8.4610778e-01 4.3262066e+01 
-3.8899176e-02 5.5709696e-01 4.3393635e+01 
-2.8052819e-01 7.2267252e-01 4.3254715e+01 
3.7877345e-01 3.8273901e-01 4.4200001e+01 
-4.3632776e-01 9.6406174e-01 4.3171322e+01 
3.9241230e-01 3.7329337e-01 4.3965439e+01 
1.0283732e-02 6.6872352e-01 4.3271511e+01 
-5.6385640e-02 5.6585240e-01 4.3265472e+01 
-8.2753494e-02 7.6403379e-01 4.3186119e+01 
-4.0345609e-01 8.6371827e-01 4.3104889e+01 
-3.1680310e-01 9.1865683e-01 4.3105087e+01 
-1.7150842e-01 6.3665158e-01 4.3179005e+01 
-1.8879703e-01 8.4598809e-01 4.3117241e+01 
-2.7900568e-01 7.2029078e-01 4.3109074e+01 
4.0610775e-01 3.6380205e-01 4.3729839e+01 
1.6776134e-01 5.1882964e-01 4.3331150e+01 
-4.3632707e-01 9.6405768e-01 4.3038357e+01 
1.4031014e-01 4.6124566e-01 4.3307755e+01 
3.4952711e-02 6.4519531e-01 4.3111935e+01 
-7.7818394e-02 7.6232505e-01 4.3039719e+01 
-3.1539652e-01 9.1891652e-01 4.2971603e+01 
-3.9551663e-01 8.5160977e-01 4.2969879e+01 
-2.6899155e-02 5.4666573e-01 4.3105160e+01 
-1.6795819e-01 6.3274628e-01 4.3031849e+01 
-1.8551964e-01 8.4585863e-01 4.2969406e+01 
4.1985780e-01 3.5425979e-01 4.3493168e+01 
-2.7745360e-01 7.1786088e-01 4.2960495e+01 
-4.3632638e-01 9.6405357e-01 4.2904346e+01 
2.2723136e-02 6.6139150e-01 4.2979332e+01 
-4.4916678e-02 5.5559248e-01 4.2971806e+01 
-3.1397179e-01 9.1916907e-01 4.2837063e+01 
-3.9541367e-01 8.5101974e-01 4.2835335e+01 
-7.2757579e-02 7.6053542e-01 4.2890255e+01 
-1.6429928e-01 6.2873662e-01 4.2881699e+01 
1.8463810e-01 5.0694346e-01 4.3035332e+01 
-1.8218029e-01 8.4571803e-01 4.2818455e+01 
1.5503895e-01 4.5003417e-01 4.3027725e+01 
-2.7587104e-01 7.1538109e-01 4.2808868e+01 
4.3366045e-01 3.4466109e-01 4.3255390e+01 
-4.3632573e-01 9.6404958e-01 4.2769268e+01 
-3.8429454e-01 8.3484912e-01 4.2710606e+01 
-3.1252861e-01 9.1941386e-01 4.2701439e+01 
4.8404284e-02 6.3678014e-01 4.2813030e+01 
-1.4070326e-02 5.3562075e-01 4.2804932e+01 
-6.7567028e-02 7.5865942e-01 4.2737610e+01 
-1.6052702e-01 6.2461799e-01 4.2728443e+01 
-1.7877772e-01 8.4556442e-01 4.2664265e+01 
-4.3632504e-01 9.6404558e-01 4.2633099e+01 
-2.7425703e-01 7.1284944e-01 4.2654083e+01 
4.4751364e-01 3.3500037e-01 4.3016472e+01 
3.5901129e-02 6.5341437e-01 4.2674721e+01 
-3.7959340e-01 8.2794034e-01 4.2568317e+01 
-3.1106678e-01 9.1965032e-01 4.2564713e+01 
-3.2659348e-02 5.4472327e-01 4.2665997e+01 
2.0396979e-01 4.9291667e-01 4.2740131e+01 
-6.2242586e-02 7.5669110e-01 4.2581669e+01 
1.7765003e-01 4.3475360e-01 4.2732578e+01 
-1.5663649e-01 6.2038553e-01 4.2571964e+01 
-4.3632439e-01 9.6404165e-01 4.2495808e+01 
-1.7531081e-01 8.4539592e-01 4.2506718e+01 
-2.7261066e-01 7.1026409e-01 4.2496017e+01 
-3.0958602e-01 9.1987789e-01 4.2426853e+01 
-3.7859210e-01 8.2613736e-01 4.2421188e+01 
4.6141517e-01 3.2527190e-01 4.2776375e+01 
6.2686495e-02 6.2762415e-01 4.2501175e+01 
-3.3570320e-04 5.2390522e-01 4.2492062e+01 
-5.6779940e-02 7.5462401e-01 4.2422298e+01 
-4.3632373e-01 9.6403772e-01 4.2357380e+01 
-1.5262254e-01 6.1603409e-01 4.2412144e+01 
-1.7177837e-01 8.4521037e-01 4.2345684e+01 
-2.7093092e-01 7.0762289e-01 4.2334549e+01 
-3.0808610e-01 9.2009580e-01 4.2287842e+01 
-3.8275370e-01 8.3137155e-01 4.2275047e+01 
4.9876589e-02 6.4471585e-01 4.2356720e+01 
-1.9539909e-02 5.3318781e-01 4.2347118e+01 
-4.3632311e-01 9.6403396e-01 4.2217781e+01 
2.1959943e-01 4.8236796e-01 4.2385345e+01 
-5.1174615e-02 7.5245124e-01 4.2259373e+01 
1.9034323e-01 4.2346162e-01 4.2378918e+01 
-1.4847966e-01 6.1155808e-01 4.2248856e+01 
4.7536272e-01 3.1546980e-01 4.2535065e+01 
-1.6817927e-01 8.4500539e-01 4.2181026e+01 
-2.6921678e-01 7.0492369e-01 4.2169544e+01 
-3.0656675e-01 9.2030340e-01 4.2147648e+01 
-3.9470181e-01 8.4769493e-01 4.2145920e+01 
7.7868804e-02 6.1763972e-01 4.2175373e+01 
-4.3632248e-01 9.6403021e-01 4.2076988e+01 
1.4390758e-02 5.1145434e-01 4.2165581e+01 
-4.5421973e-02 7.5016522e-01 4.2092751e+01 
-1.4420210e-01 6.0695171e-01 4.2081959e+01 
-3.0502778e-01 9.2049998e-01 4.2006248e+01 
-4.0175444e-01 8.5747409e-01 4.2004128e+01 
-1.6451253e-01 8.4477836e-01 4.2012604e+01 
4.8935395e-01 3.0558801e-01 4.2292507e+01 
-2.6746723e-01 7.0216429e-01 4.2000870e+01 
6.4714879e-02 6.3520777e-01 4.2024277e+01 
-4.3632188e-01 9.6402657e-01 4.1934975e+01 
-5.4755262e-03 5.2092212e-01 4.2014156e+01 
-2.3078828e-01 8.1064087e-01 4.1931458e+01 
2.3550548e-01 4.7116494e-01 4.2073269e+01 
2.0610523e-01 4.1123796e-01 4.2066772e+01 
-3.9517213e-02 7.4775779e-01 4.1922287e+01 
-1.3978374e-01 6.0220873e-01 4.1911320e+01 
-3.0346894e-01 9.2068475e-01 4.1863613e+01 
-3.9432141e-01 8.4618556e-01 4.1861881e+01 
-1.6077711e-01 8.4452641e-01 4.1840263e+01 
-2.6568118e-01 6.9934219e-01 4.1828377e+01 
-4.3632129e-01 9.6402299e-01 4.1791718e+01 
5.0338638e-01 2.9562023e-01 4.2048656e+01 
9.4028555e-02 6.0672593e-01 4.1834507e+01 
3.0205652e-02 4.9819478e-01 4.1824417e+01 
-3.8116732e-01 8.2744831e-01 4.1725647e+01 
-3.0189002e-01 9.2085695e-01 4.1719719e+01 
-3.3455357e-02 7.4522001e-01 4.1747829e+01 
-1.3521814e-01 5.9732240e-01 4.1736786e+01 
-4.3632072e-01 9.6401960e-01 4.1647179e+01 
-1.5697217e-01 8.4424627e-01 4.1663853e+01 
-2.6385748e-01 6.9645494e-01 4.1651920e+01 
8.0488607e-02 6.2478805e-01 4.1676235e+01 
2.6870471e-01 4.4547972e-01 4.1752304e+01 
9.6269641e-03 5.0785345e-01 4.1665993e+01 
2.4764967e-01 3.8646612e-01 4.1743168e+01 
-3.0029076e-01 9.2101562e-01 4.1574532e+01 
-3.9388368e-01 8.4456980e-01 4.1572796e+01 
5.1745731e-01 2.8556010e-01 4.1803486e+01 
-2.7231261e-02 7.4254233e-01 4.1569210e+01 
-1.3049847e-01 5.9228569e-01 4.1558201e+01 
-4.3632016e-01 9.6401632e-01 4.1501339e+01 
-1.5309690e-01 8.4393430e-01 4.1483204e+01 
-2.6199502e-01 6.9349992e-01 4.1471333e+01 
-2.9867104e-01 9.2115986e-01 4.1428024e+01 
-3.9364263e-01 8.4372103e-01 4.1426289e+01 
1.1125199e-01 5.9476525e-01 4.1477348e+01 
4.7217656e-02 4.8404291e-01 4.1467384e+01 
-4.3631962e-01 9.6401310e-01 4.1354160e+01 
-2.0839609e-02 7.3971421e-01 4.1386261e+01 
-1.2561750e-01 5.8709091e-01 4.1375404e+01 
5.3156406e-01 2.7540097e-01 4.1556946e+01 
-1.4915068e-01 8.4358656e-01 4.1298138e+01 
-2.9703063e-01 9.2128879e-01 4.1280167e+01 
-3.9338648e-01 8.4284443e-01 4.1278431e+01 
-2.6009262e-01 6.9047421e-01 4.1286449e+01 
2.9365057e-01 4.2687622e-01 4.1391586e+01 
9.7278498e-02 6.1333776e-01 4.1311302e+01 
2.7470219e-01 3.6807936e-01 4.1382729e+01 
2.5872495e-02 4.9389899e-01 4.1301384e+01 
-4.3631911e-01 9.6401012e-01 4.1205620e+01 
-1.4274905e-02 7.3672432e-01 4.1198803e+01 
-1.2056758e-01 5.8173001e-01 4.1188221e+01 
-2.9536936e-01 9.2140132e-01 4.1130928e+01 
[...]
POINT_DATA 4496
FIELD FieldData 5
DISPLACEMENT 3 4496  float
3.0830834e-04 3.7983467e-04 -7.0292458e-06 
3.0650472e-04 3.7703625e-04 -7.0290121e-06 
3.1103220e-04 3.8593190e-04 -7.5367384e-06 
3.1487050e-04 3.8254241e-04 -5.0048375e-06 
3.1134390e-04 3.7774205e-04 -5.1864595e-06 
3.0811742e-04 3.8148297e-04 -7.5562948e-06 
3.0468989e-04 3.7422063e-04 -7.0286032e-06 
3.1453889e-04 3.9170074e-04 -7.6268007e-06 
3.2030969e-04 3.8758453e-04 -4.0849245e-06 
3.1272211e-04 3.8902595e-04 -7.6654187e-06 
3.1858159e-04 3.8480380e-04 -4.0573914e-06 
3.0954287e-04 3.7491665e-04 -5.1775519e-06 
3.0628039e-04 3.7872460e-04 -7.5814037e-06 
3.1087254e-04 3.8630047e-04 -7.7043696e-06 
3.1820685e-04 3.9664854e-04 -7.4270856e-06 
3.1682188e-04 3.8197442e-04 -4.0301534e-06 
3.0286398e-04 3.7138732e-04 -7.0280321e-06 
3.2421196e-04 3.9252781e-04 -3.7845418e-06 
3.1309255e-04 3.8022734e-04 -5.1247625e-06 
3.1727162e-04 3.9483709e-04 -7.3295546e-06 
3.2318692e-04 3.9072518e-04 -3.7264638e-06 
3.0443343e-04 3.7594902e-04 -7.6043657e-06 
3.0773107e-04 3.7207475e-04 -5.1694224e-06 
3.0898943e-04 3.8352484e-04 -7.7438699e-06 
3.1503025e-04 3.7909416e-04 -4.0023506e-06 
3.2292044e-04 4.0158714e-04 -6.7852516e-06 
3.1386773e-04 3.9015492e-04 -7.4913028e-06 
3.0103061e-04 3.6853674e-04 -7.0267224e-06 
3.2791143e-04 3.9838740e-04 -3.8172161e-06 
3.2003174e-04 3.8574284e-04 -3.7016337e-06 
3.0707312e-04 3.8069751e-04 -7.7833283e-06 
3.0257646e-04 3.7315593e-04 -7.6285560e-06 
3.0591071e-04 3.6921751e-04 -5.1623206e-06 
3.2035392e-04 3.9714185e-04 -6.6603275e-06 
3.1320532e-04 3.7616273e-04 -3.9748347e-06 
3.1203270e-04 3.8742297e-04 -7.5224311e-06 
3.2513586e-04 3.9394503e-04 -3.7781276e-06 
3.2429060e-04 4.0182992e-04 -6.2755757e-06 
3.1828633e-04 3.8292140e-04 -3.6698814e-06 
3.2831781e-04 3.9933925e-04 -3.9031302e-06 
2.9918502e-04 3.6567295e-04 -7.0259466e-06 
3.2828772e-04 4.0711084e-04 -6.0263505e-06 
3.1779031e-04 3.9379628e-04 -6.8316835e-06 
3.2297295e-04 3.9041092e-04 -3.7284947e-06 
3.3167939e-04 4.0515757e-04 -4.0677778e-06 
3.0512142e-04 3.7781603e-04 -7.8228340e-06 
3.1016525e-04 3.8463992e-04 -7.5531793e-06 
3.0070977e-04 3.7034776e-04 -7.6512742e-06 
3.0408028e-04 3.6634330e-04 -5.1522934e-06 
3.1134911e-04 3.7317947e-04 -3.9472820e-06 
3.1651056e-04 3.8004998e-04 -3.6374595e-06 
3.2975999e-04 4.0822665e-04 -5.7102320e-06 
3.1688056e-04 3.9180633e-04 -6.6754924e-06 
3.3223629e-04 4.0690863e-04 -4.3073865e-06 
2.9733172e-04 3.6278882e-04 -7.0239826e-06 
3.2177102e-04 3.8852706e-04 -3.7218422e-06 
3.2577309e-04 4.0251002e-04 -5.8378528e-06 
3.2866758e-04 4.0080791e-04 -4.1513576e-06 
3.3401980e-04 4.1410950e-04 -5.5138494e-06 
3.3573672e-04 4.1327628e-04 -4.5622714e-06 
3.0826547e-04 3.8180454e-04 -7.5844823e-06 
3.1430356e-04 3.8844565e-04 -6.8477389e-06 
3.0313557e-04 3.7488216e-04 -7.8629355e-06 
2.9883190e-04 3.6752145e-04 -7.6754304e-06 
3.0224083e-04 3.6345384e-04 -5.1444667e-06 
3.1470298e-04 3.7712898e-04 -3.6062636e-06 
3.1953433e-04 3.8487092e-04 -3.6713116e-06 
3.0945745e-04 3.7014220e-04 -3.9204206e-06 
2.9546709e-04 3.5989075e-04 -7.0232986e-06 
3.2281605e-04 3.9782320e-04 -5.8117107e-06 
3.2570961e-04 3.9615328e-04 -4.1299786e-06 
3.0633257e-04 3.7891741e-04 -7.6136594e-06 
3.1286204e-04 3.7415500e-04 -3.5737291e-06 
2.9694676e-04 3.6468165e-04 -7.6975712e-06 
3.0039385e-04 3.6054908e-04 -5.1372249e-06 
3.1328955e-04 3.8627358e-04 -6.6859193e-06 
3.0111420e-04 3.7189148e-04 -7.9020247e-06 
3.1828613e-04 3.8292076e-04 -3.6653710e-06 
3.0753194e-04 3.6705061e-04 -3.8934336e-06 
3.3920861e-04 4.2316949e-04 -5.7884017e-06 
2.9359318e-04 3.5697513e-04 -7.0231285e-06 
3.3631251e-04 4.1862196e-04 -5.7733796e-06 
3.1062591e-04 3.8279535e-04 -6.8626505e-06 
3.1597362e-04 3.7913714e-04 -3.6128833e-06 
3.0436704e-04 3.7597521e-04 -7.6432088e-06 
2.9794557e-04 3.5724480e-04 -5.2740324e-06 
2.9504762e-04 3.6182094e-04 -7.7217364e-06 
3.1099084e-04 3.7113077e-04 -3.5423739e-06 
2.9905792e-04 3.6884716e-04 -7.9411584e-06 
3.0557552e-04 3.6390644e-04 -3.8647681e-06 
3.3339663e-04 4.1404518e-04 -5.7574457e-06 
3.1940677e-04 3.9245261e-04 -5.7888892e-06 
2.9170851e-04 3.5404653e-04 -7.0231172e-06 
3.2211110e-04 3.9047774e-04 -4.1005278e-06 
3.0957715e-04 3.8053360e-04 -6.6915663e-06 
3.0236796e-04 3.7297912e-04 -7.6708548e-06 
2.9314673e-04 3.5894892e-04 -7.7421173e-06 
2.9666812e-04 3.5468856e-04 -5.1201687e-06 
3.1467661e-04 3.7711865e-04 -3.6084939e-06 
3.0908379e-04 3.6805135e-04 -3.5096039e-06 
2.9696513e-04 3.6574301e-04 -7.9789925e-06 
3.3046148e-04 4.0942867e-04 -5.7405882e-06 
3.0358028e-04 3.6070368e-04 -3.8385701e-06 
2.8982203e-04 3.5109787e-04 -7.0205074e-06 
3.0682489e-04 3.7693273e-04 -6.8723066e-06 
3.1228631e-04 3.7320334e-04 -3.5551611e-06 
2.9123467e-04 3.5605993e-04 -7.7663171e-06 
2.9479642e-04 3.5173853e-04 -5.1139373e-06 
3.0033488e-04 3.6992549e-04 -7.6985589e-06 
3.0714640e-04 3.6492079e-04 -3.4794189e-06 
3.1576326e-04 3.8671007e-04 -5.7651305e-06 
2.9483478e-04 3.6257887e-04 -8.0160116e-06 
3.1865036e-04 3.8498139e-04 -4.0630885e-06 
3.0155428e-04 3.5744911e-04 -3.8144137e-06 
3.2751128e-04 4.0478978e-04 -5.7281695e-06 
2.8792126e-04 3.4814319e-04 -7.0189340e-06 
2.9388428e-04 3.4959195e-04 -4.9163632e-06 
2.8931702e-04 3.5316165e-04 -7.7846389e-06 
3.0574159e-04 3.7458105e-04 -6.6916232e-06 
3.1093956e-04 3.7111738e-04 -3.5539410e-06 
2.9826525e-04 3.6681723e-04 -7.7247369e-06 
3.0517191e-04 3.6173471e-04 -3.4467766e-06 
2.9267176e-04 3.5936289e-04 -8.0520367e-06 
2.8601717e-04 3.4517227e-04 -7.0157812e-06 
2.9948997e-04 3.5412973e-04 -3.7886921e-06 
3.2454249e-04 4.0011745e-04 -5.7098132e-06 
3.0289852e-04 3.7085445e-04 -6.8761310e-06 
2.9224806e-04 3.4673183e-04 -4.8314710e-06 
2.8739346e-04 3.5024626e-04 -7.7994810e-06 
3.0846943e-04 3.6706708e-04 -3.4994659e-06 
3.1224772e-04 3.8111914e-04 -5.7279967e-06 
2.9616785e-04 3.6365216e-04 -7.7520453e-06 
3.1518764e-04 3.7957091e-04 -4.0500377e-06 
3.0316770e-04 3.5849540e-04 -3.4227030e-06 
2.8411017e-04 3.4218584e-04 -7.0088058e-06 
2.9046900e-04 3.5608647e-04 -8.0904074e-06 
2.9739010e-04 3.5076056e-04 -3.7653317e-06 
2.8545939e-04 3.4732017e-04 -7.8199000e-06 
2.9028318e-04 3.4359109e-04 -4.8131046e-06 
3.2157061e-04 3.9543744e-04 -5.6884610e-06 
3.0178385e-04 3.6841203e-04 -6.6828311e-06 
3.0707585e-04 3.6491398e-04 -3.4995169e-06 
2.9403446e-04 3.6043156e-04 -7.7711275e-06 
2.8219275e-04 3.3919484e-04 -7.0060928e-06 
3.0112700e-04 3.5520058e-04 -3.3938472e-06 
2.8823235e-04 3.5275079e-04 -8.1235603e-06 
2.9525609e-04 3.4733492e-04 -3.7423276e-06 
2.8352521e-04 3.4438571e-04 -7.8370576e-06 
2.8797679e-04 3.4021845e-04 -4.8770644e-06 
2.9885041e-04 3.6455318e-04 -6.8702475e-06 
3.0453131e-04 3.6072684e-04 -3.4435127e-06 
2.8027405e-04 3.3619633e-04 -7.0023584e-06 
3.0771946e-04 3.7403600e-04 -5.7133757e-06 
2.9186934e-04 3.5715595e-04 -7.7887489e-06 
3.1069861e-04 3.7236887e-04 -3.9899237e-06 
2.9905493e-04 3.5185678e-04 -3.3668864e-06 
3.1858723e-04 3.9073234e-04 -5.6640365e-06 
2.8596038e-04 3.4935676e-04 -8.1559119e-06 
2.9308541e-04 3.4385172e-04 -3.7204074e-06 
2.8159178e-04 3.4144719e-04 -7.8511457e-06 
2.8534714e-04 3.3682724e-04 -5.0719991e-06 
2.9771097e-04 3.6203212e-04 -6.6657108e-06 
2.7835122e-04 3.3318452e-04 -7.0001033e-06 
3.0309267e-04 3.5851603e-04 -3.4533068e-06 
2.8967296e-04 3.5382502e-04 -7.8051762e-06 
2.9695733e-04 3.4845938e-04 -3.3377253e-06 
2.7964110e-04 3.3848608e-04 -7.8727735e-06 
2.8288359e-04 3.3342454e-04 -5.1925977e-06 
2.8365318e-04 3.4590453e-04 -8.1869111e-06 
3.1560095e-04 3.8601071e-04 -5.6394856e-06 
2.9089057e-04 3.4031976e-04 -3.6954077e-06 
2.9469086e-04 3.5804813e-04 -6.8547010e-06 
2.7640944e-04 3.3015781e-04 -6.9997541e-06 
3.0047426e-04 3.5419426e-04 -3.3949664e-06 
2.8431314e-04 3.4073016e-04 -6.5322051e-06 
3.0387793e-04 3.6797210e-04 -5.6873423e-06 
3.0689259e-04 3.6630619e-04 -3.9557081e-06 
2.8744727e-04 3.5044336e-04 -7.8216272e-06 
2.9482675e-04 3.4501337e-04 -3.3090662e-06 
2.7768323e-04 3.3551149e-04 -7.8884432e-06 
2.8151431e-04 3.3077193e-04 -5.0589369e-06 
2.8130994e-04 3.4240176e-04 -8.2191500e-06 
2.8866352e-04 3.3672259e-04 -3.6724766e-06 
2.7446926e-04 3.2711681e-04 -6.9939028e-06 
3.1262459e-04 3.8129909e-04 -5.6158533e-06 
2.9352840e-04 3.5544523e-04 -6.6401781e-06 
2.9899357e-04 3.5192701e-04 -3.4096845e-06 
2.8063729e-04 3.2856557e-04 -4.8366173e-06 
2.7573420e-04 3.3253865e-04 -7.8982621e-06 
2.8518579e-04 3.4699737e-04 -7.8362564e-06 
2.9266166e-04 3.4150621e-04 -3.2794901e-06 
2.7253339e-04 3.2406725e-04 -6.9841635e-06 
2.7893379e-04 3.3882997e-04 -8.2499591e-06 
2.8639086e-04 3.3306572e-04 -3.6540484e-06 
2.9041714e-04 3.5133041e-04 -6.8286158e-06 
3.0070066e-04 3.6266382e-04 -5.5853593e-06 
2.9629268e-04 3.4746135e-04 -3.3505899e-06 
3.0361151e-04 3.6137900e-04 -4.0089103e-06 
2.7377502e-04 3.2955300e-04 -7.9146375e-06 
2.7769225e-04 3.2469837e-04 -5.0386152e-06 
3.0967410e-04 3.7661858e-04 -5.5881060e-06 
2.8289450e-04 3.4349295e-04 -7.8491357e-06 
2.9046868e-04 3.3795068e-04 -3.2591151e-06 
2.7059385e-04 3.2102273e-04 -6.9783450e-06 
2.7652053e-04 3.3519964e-04 -8.2731276e-06 
2.8408814e-04 3.2935839e-04 -3.6400022e-06 
2.7182302e-04 3.2656454e-04 -7.9242000e-06 
2.7577567e-04 3.2165923e-04 -5.0371027e-06 
2.8923567e-04 3.4864226e-04 -6.6008556e-06 
2.9477919e-04 3.4514681e-04 -3.3641404e-06 
2.6864727e-04 3.1797925e-04 -6.9757280e-06 
2.8057271e-04 3.3993614e-04 -7.8543035e-06 
2.8824387e-04 3.3434090e-04 -3.2316809e-06 
3.0672381e-04 3.7192288e-04 -5.5514242e-06 
2.7407508e-04 3.3151623e-04 -8.2927008e-06 
2.6986582e-04 3.2357860e-04 -7.9321444e-06 
2.7385424e-04 3.1860883e-04 -5.0251283e-06 
2.8175765e-04 3.2559255e-04 -3.6158388e-06 
2.9665799e-04 3.5614124e-04 -5.5199316e-06 
2.8603751e-04 3.4438967e-04 -6.7943547e-06 
2.9954291e-04 3.5498349e-04 -3.9984247e-06 
2.9200793e-04 3.4053644e-04 -3.3021252e-06 
2.6670846e-04 3.1491162e-04 -6.9694934e-06 
2.7822709e-04 3.3632500e-04 -7.8632384e-06 
2.8598355e-04 3.3067635e-04 -3.2061928e-06 
2.6790798e-04 3.2057057e-04 -7.9460733e-06 
2.7194156e-04 3.1555234e-04 -5.0221379e-06 
2.7160122e-04 3.2776661e-04 -8.3209643e-06 
2.7939148e-04 3.2177646e-04 -3.6010831e-06 
3.0379149e-04 3.6724348e-04 -5.5185369e-06 
2.6475979e-04 3.1185473e-04 -6.9657572e-06 
2.8484408e-04 3.4162647e-04 -6.5523318e-06 
2.9044878e-04 3.3816171e-04 -3.3276515e-06 
2.6594911e-04 3.1756746e-04 -7.9589709e-06 
2.7002074e-04 3.1249237e-04 -5.0125545e-06 
2.7584480e-04 3.3264424e-04 -7.8645935e-06 
2.8370298e-04 3.2696477e-04 -3.1857523e-06 
2.6282208e-04 3.0877971e-04 -6.9583057e-06 
2.6909524e-04 3.2396213e-04 -8.3332170e-06 
2.7698843e-04 3.1789683e-04 -3.5813614e-06 
2.9252595e-04 3.4942944e-04 -5.4506031e-06 
2.9537728e-04 3.4841156e-04 -3.9852448e-06 
2.8260966e-04 3.3803211e-04 -6.5135391e-06 
3.0089321e-04 3.6259840e-04 -5.4844008e-06 
2.6400088e-04 3.1455659e-04 -7.9629426e-06 
2.6810955e-04 3.0943708e-04 -5.0156686e-06 
2.8823855e-04 3.3460761e-04 -3.3034710e-06 
2.7344568e-04 3.2892133e-04 -7.8612966e-06 
2.8138625e-04 3.2319446e-04 -3.1660650e-06 
2.6087661e-04 3.0572331e-04 -6.9536773e-06 
2.6654839e-04 3.2009202e-04 -8.3503483e-06 
2.7457310e-04 3.1396910e-04 -3.5688161e-06 
2.6205144e-04 3.1156442e-04 -7.9643078e-06 
2.6619321e-04 3.0637873e-04 -5.0048507e-06 
2.8035880e-04 3.3439047e-04 -6.4793962e-06 
2.7082686e-04 3.1428621e-04 -5.1605098e-06 
2.8601394e-04 3.3100901e-04 -3.2933108e-06 
2.5894033e-04 3.0264788e-04 -6.9419621e-06 
2.9799316e-04 3.5792604e-04 -5.4437910e-06 
2.8843002e-04 3.4304353e-04 -5.4541993e-06 
2.7101886e-04 3.2514136e-04 -7.8429302e-06 
2.9129881e-04 3.4156666e-04 -3.8752714e-06 
2.7905314e-04 3.1939463e-04 -3.1460256e-06 
2.6009866e-04 3.0854635e-04 -7.9587262e-06 
2.6427937e-04 3.0331689e-04 -4.9990999e-06 
2.6400384e-04 3.1619109e-04 -8.3470986e-06 
2.7211595e-04 3.1000227e-04 -3.5698247e-06 
2.5700504e-04 2.9959300e-04 -6.9375178e-06 
2.7809379e-04 3.3070953e-04 -6.4487754e-06 
2.8376482e-04 3.2736809e-04 -3.2744481e-06 
2.6857751e-04 3.2131933e-04 -7.8361036e-06 
2.5816634e-04 3.0554540e-04 -7.9596275e-06 
2.6238451e-04 3.0026777e-04 -4.9935884e-06 
2.7668924e-04 3.1554230e-04 -3.1203019e-06 
2.9510775e-04 3.5330368e-04 -5.4159400e-06 
2.6141273e-04 3.1222659e-04 -8.3626528e-06 
2.5508049e-04 2.9653474e-04 -6.9281605e-06 
2.8970162e-04 3.3976306e-04 -4.0815980e-06 
2.8777856e-04 3.4112867e-04 -5.2281671e-06 
2.6963933e-04 3.0598132e-04 -3.5494336e-06 
2.7581022e-04 3.2698599e-04 -6.4025630e-06 
2.8148934e-04 3.2368116e-04 -3.2648034e-06 
2.5623143e-04 3.0254331e-04 -7.9637020e-06 
2.6048475e-04 2.9721906e-04 -4.9884370e-06 
2.6610855e-04 3.1743848e-04 -7.8257954e-06 
2.7431184e-04 3.1164312e-04 -3.1024315e-06 
2.5315091e-04 2.9347351e-04 -6.9173097e-06 
2.9226579e-04 3.4869389e-04 -5.3630947e-06 
2.5878855e-04 3.0819897e-04 -8.3756631e-06 
2.6713652e-04 3.0190242e-04 -3.5315484e-06 
2.5428832e-04 2.9953796e-04 -7.9661886e-06 
2.5857249e-04 2.9416307e-04 -4.9847872e-06 
2.8689826e-04 3.3521306e-04 -4.0526634e-06 
2.8498250e-04 3.3659558e-04 -5.1903503e-06 
2.7340540e-04 3.2309332e-04 -6.3586581e-06 
2.7906589e-04 3.1973780e-04 -3.2484179e-06 
2.6106145e-04 3.0154231e-04 -5.8217006e-06 
2.5123399e-04 2.9041572e-04 -6.9040038e-06 
2.6351921e-04 3.1342902e-04 -7.8246858e-06 
2.7178996e-04 3.0753022e-04 -3.0991584e-06 
2.5233609e-04 2.9644178e-04 -7.9450665e-06 
2.5661263e-04 2.9109436e-04 -5.0080444e-06 
2.5620271e-04 3.0419545e-04 -8.3604009e-06 
2.8946664e-04 3.4413827e-04 -5.3073941e-06 
2.6466799e-04 2.9789918e-04 -3.5327760e-06 
2.4935193e-04 2.8743997e-04 -6.9005519e-06 
2.7058212e-04 3.1879687e-04 -6.3868147e-06 
2.7641401e-04 3.1533313e-04 -3.2105124e-06 
2.8416616e-04 3.3077114e-04 -4.0176951e-06 
2.8226234e-04 3.3215809e-04 -5.1405696e-06 
2.5842211e-04 2.9741070e-04 -5.8347769e-06 
2.5043741e-04 2.9342651e-04 -7.9189822e-06 
2.6082087e-04 3.0932526e-04 -7.8356770e-06 
2.5469100e-04 2.8807792e-04 -5.0200656e-06 
2.6926748e-04 3.0341506e-04 -3.0912990e-06 
2.4752424e-04 2.8449748e-04 -6.8832792e-06 
2.5371893e-04 3.0032909e-04 -8.3505265e-06 
2.6228308e-04 2.9402849e-04 -3.5328012e-06 
2.8671167e-04 3.3962933e-04 -5.2543614e-06 
2.6774406e-04 3.1458851e-04 -6.4492579e-06 
2.7384545e-04 3.1105586e-04 -3.1806730e-06 
2.4855699e-04 2.9044255e-04 -7.9114434e-06 
2.5280434e-04 2.8512030e-04 -5.0362924e-06 
2.7689719e-04 3.2435209e-04 -5.2974365e-06 
2.7976418e-04 3.2280837e-04 -3.7635086e-06 
2.5822312e-04 3.0536039e-04 -7.8498178e-06 
2.6682319e-04 2.9940868e-04 -3.0786407e-06 
2.5531516e-04 2.9247234e-04 -5.8233918e-06 
2.4572350e-04 2.8162333e-04 -6.8768559e-06 
2.5997698e-04 2.9025806e-04 -3.5221176e-06 
2.5130282e-04 2.9656073e-04 -8.3380628e-06 
2.4673363e-04 2.8751811e-04 -7.8961693e-06 
2.5095674e-04 2.8222147e-04 -5.0503259e-06 
2.7134907e-04 3.0689751e-04 -3.1451718e-06 
2.6499998e-04 3.1050699e-04 -6.5110471e-06 
2.8401389e-04 3.3521812e-04 -5.2129785e-06 
2.4394286e-04 2.7879290e-04 -6.8726013e-06 
2.6444756e-04 2.9552288e-04 -3.0646715e-06 
2.5570122e-04 3.0151717e-04 -7.8654748e-06 
2.7699539e-04 3.2352805e-04 -5.0728245e-06 
2.7717926e-04 3.1869157e-04 -3.7865805e-06 
2.4492698e-04 2.8463814e-04 -7.8740040e-06 
2.4884459e-04 2.7911656e-04 -5.1094980e-06 
2.5775190e-04 2.8658556e-04 -3.4955815e-06 
2.4896901e-04 2.9293497e-04 -8.3430850e-06 
2.5028092e-04 2.8549432e-04 -6.0610655e-06 
2.4220222e-04 2.7598231e-04 -6.8519812e-06 
2.6891197e-04 3.0285420e-04 -3.1289405e-06 
2.6505371e-04 3.0880238e-04 -6.0750249e-06 
2.6213506e-04 2.9175461e-04 -3.0739125e-06 
2.5327213e-04 2.9777485e-04 -7.8770299e-06 
2.4315313e-04 2.8179129e-04 -7.8484109e-06 
2.8140514e-04 3.3092583e-04 -5.1755455e-06 
2.4734344e-04 2.7652318e-04 -5.0664562e-06 
2.5254858e-04 2.8652494e-04 -5.4537381e-06 
2.7477185e-04 3.1471942e-04 -3.7442810e-06 
2.4049316e-04 2.7324320e-04 -6.8417703e-06 
2.5555620e-04 2.8303522e-04 -3.5133817e-06 
2.4670892e-04 2.8937744e-04 -8.3210643e-06 
2.7443442e-04 3.1930677e-04 -5.0221806e-06 
2.6655462e-04 2.9893519e-04 -3.0906872e-06 
2.5978289e-04 3.0269477e-04 -6.5831259e-06 
2.4141889e-04 2.7900920e-04 -7.8388694e-06 
2.4559983e-04 2.7376183e-04 -5.0795661e-06 
2.5990454e-04 2.8809661e-04 -3.0601386e-06 
2.5092301e-04 2.9414071e-04 -7.8743114e-06 
2.4808259e-04 2.7958868e-04 -5.5000437e-06 
2.3881411e-04 2.7054883e-04 -6.8346249e-06 
2.7883635e-04 3.2669114e-04 -5.1476709e-06 
2.5345196e-04 2.7956939e-04 -3.4949016e-06 
2.4451621e-04 2.8593716e-04 -8.3090727e-06 
2.7120524e-04 3.0824105e-04 -3.5566670e-06 
2.6721103e-04 3.0933120e-04 -5.3719873e-06 
2.3971475e-04 2.7626767e-04 -7.8213507e-06 
2.6427422e-04 2.9512271e-04 -3.0611616e-06 
2.4521965e-04 2.7183385e-04 -4.7696317e-06 
2.5731116e-04 2.9898426e-04 -6.6275511e-06 
2.3715396e-04 2.6788731e-04 -6.8278778e-06 
2.5773430e-04 2.8452775e-04 -3.0449710e-06 
2.4864174e-04 2.9062631e-04 -7.8715584e-06 
2.4218332e-04 2.6836278e-04 -5.1020766e-06 
2.3771168e-04 2.7271843e-04 -7.7288287e-06 
2.5141149e-04 2.7620391e-04 -3.4897739e-06 
2.4238823e-04 2.8258719e-04 -8.3005816e-06 
2.7632184e-04 3.2249713e-04 -5.0999952e-06 
2.4393863e-04 2.7623947e-04 -6.2521417e-06 
2.6206271e-04 2.9142963e-04 -3.0391664e-06 
2.5489702e-04 2.9535958e-04 -6.6678094e-06 
2.3552726e-04 2.6529230e-04 -6.8252884e-06 
2.5561589e-04 2.8108223e-04 -3.0494230e-06 
2.6948363e-04 3.1105222e-04 -4.9468745e-06 
2.7132436e-04 3.0967512e-04 -3.8921039e-06 
2.4233098e-04 2.6720442e-04 -4.7865324e-06 
2.4642388e-04 2.8718155e-04 -7.8625308e-06 
2.3693674e-04 2.7220047e-04 -7.8783578e-06 
2.6582213e-04 2.9851310e-04 -3.2970436e-06 
2.6117821e-04 3.0077019e-04 -5.6073563e-06 
2.4940440e-04 2.7293689e-04 -3.4969671e-06 
2.4035930e-04 2.7932809e-04 -8.2576007e-06 
2.3394501e-04 2.6273745e-04 -6.8096733e-06 
2.5990672e-04 2.8783217e-04 -3.0104691e-06 
2.5258007e-04 2.9186433e-04 -6.6985485e-06 
2.7379920e-04 3.1828048e-04 -5.0467697e-06 
2.4122064e-04 2.6486875e-04 -4.6551795e-06 
2.3522697e-04 2.6951139e-04 -7.8679050e-06 
2.5357225e-04 2.7770427e-04 -3.0448350e-06 
2.4429639e-04 2.8385926e-04 -7.8682606e-06 
2.3239406e-04 2.6021007e-04 -6.7971937e-06 
2.6705404e-04 3.0699145e-04 -4.8984871e-06 
2.6887370e-04 3.0562456e-04 -3.8651965e-06 
2.4747383e-04 2.6973453e-04 -3.4766406e-06 
2.3838104e-04 2.7618546e-04 -8.2444503e-06 
2.5780755e-04 2.8432228e-04 -2.9917244e-06 
2.3345520e-04 2.6656094e-04 -7.8353614e-06 
2.4894453e-04 2.8714657e-04 -6.9379994e-06 
2.6222065e-04 2.9244903e-04 -3.2431403e-06 
2.3921423e-04 2.6163794e-04 -4.6678215e-06 
2.5157147e-04 2.7442488e-04 -3.0471590e-06 
2.4224204e-04 2.8061515e-04 -7.8607109e-06 
2.3084940e-04 2.5772990e-04 -6.7842479e-06 
2.7136219e-04 3.1416211e-04 -4.9825808e-06 
2.3813252e-04 2.6677491e-04 -6.1988981e-06 
2.4559078e-04 2.6664359e-04 -3.4649340e-06 
2.5747891e-04 2.9432066e-04 -5.4753109e-06 
2.3147347e-04 2.6266577e-04 -7.6519627e-06 
2.3645487e-04 2.7308759e-04 -8.2261713e-06 
2.3572726e-04 2.5813119e-04 -5.1362213e-06 
2.5576662e-04 2.8091748e-04 -2.9692751e-06 
2.6469555e-04 3.0301331e-04 -4.8340016e-06 
2.6650206e-04 3.0165561e-04 -3.8123969e-06 
2.4814787e-04 2.8512286e-04 -6.7635060e-06 
2.3917064e-04 2.6015818e-04 -4.3552923e-06 
2.2934000e-04 2.5529889e-04 -6.7747433e-06 
2.4963639e-04 2.7124264e-04 -3.0326567e-06 
2.4023397e-04 2.7746015e-04 -7.8517141e-06 
2.3420675e-04 2.5591790e-04 -5.1875545e-06 
2.3014360e-04 2.6074034e-04 -7.6837314e-06 
2.4376063e-04 2.6360611e-04 -3.4582090e-06 
2.3458429e-04 2.7010497e-04 -8.1955613e-06 
2.6896995e-04 3.1013769e-04 -4.9304294e-06 
2.5377146e-04 2.7759571e-04 -2.9514997e-06 
2.2786426e-04 2.5289765e-04 -6.7620244e-06 
2.4471222e-04 2.8064533e-04 -6.9748676e-06 
2.3583765e-04 2.5590183e-04 -4.5993347e-06 
2.5899665e-04 2.8716511e-04 -3.2332377e-06 
2.4773821e-04 2.6812623e-04 -3.0291289e-06 
2.4073596e-04 2.6613384e-04 -5.1111547e-06 
2.2931084e-04 2.5999063e-04 -7.8075145e-06 
2.6239260e-04 2.9911488e-04 -4.8017987e-06 
2.3829343e-04 2.7438538e-04 -7.8477378e-06 
2.6418536e-04 2.9776880e-04 -3.7923569e-06 
2.4196679e-04 2.6067469e-04 -3.4704537e-06 
2.5301348e-04 2.8743484e-04 -5.5253404e-06 