# vtk DataFile Version 4.0
vtk output
ASCII
DATASET UNSTRUCTURED_GRID
POINTS 4496 float
-4.3633327e-01 9.6409470e-01 4.4200001e+01 
-4.3633258e-01 9.6409065e-01 4.4074627e+01 
-3.2152572e-01 9.1279918e-01 4.4200001e+01 
-3.8534868e-01 8.4052670e-01 4.4200001e+01 
-3.9589554e-01 8.5545403e-01 4.4010014e+01 
-3.2616228e-01 9.1667932e-01 4.4011734e+01 
-4.3633190e-01 9.6408653e-01 4.3948376e+01 
-2.1293370e-01 8.4677851e-01 4.4200001e+01 
-2.9042658e-01 7.3813015e-01 4.4200001e+01 
-2.1010752e-01 8.4669363e-01 4.4073502e+01 
-2.8908840e-01 7.3604190e-01 4.4072292e+01 
-3.9589015e-01 8.5505831e-01 4.3883316e+01 
-3.2487559e-01 9.1697580e-01 4.3885036e+01 
-2.0722924e-01 8.4660655e-01 4.3944645e+01 
-1.1981077e-01 7.7773046e-01 4.4200001e+01 
-2.8772619e-01 7.3391593e-01 4.3942276e+01 
-4.3633121e-01 9.6408242e-01 4.3821228e+01 
-1.9739023e-01 6.6468561e-01 4.4200001e+01 
-2.9444304e-01 7.8727525e-01 4.3879974e+01 
-8.7554991e-02 7.5255024e-01 4.4042213e+01 
-1.6445170e-01 6.4084798e-01 4.4041008e+01 
-3.2357255e-01 9.1726828e-01 4.3757431e+01 
-3.9587301e-01 8.5463828e-01 4.3755711e+01 
-2.0429766e-01 8.4651643e-01 4.3813354e+01 
-2.8633916e-01 7.3175091e-01 4.3809875e+01 
-2.6899619e-02 6.8901783e-01 4.4200001e+01 
-1.0567340e-01 7.7152997e-01 4.3875790e+01 
-4.3633053e-01 9.6407831e-01 4.3693161e+01 
-8.7133333e-02 5.9509218e-01 4.4200001e+01 
-1.8777622e-01 6.5475601e-01 4.3873402e+01 
-2.0131156e-01 8.4642249e-01 4.3679543e+01 
-3.2225290e-01 9.1755641e-01 4.3628902e+01 
-3.9584404e-01 8.5419410e-01 4.3627178e+01 
-1.0114321e-03 6.6670936e-01 4.3939713e+01 
-2.8492665e-01 7.2954547e-01 4.3675007e+01 
-1.0131179e-01 7.7015632e-01 4.3743176e+01 
-6.0682178e-02 5.7631296e-01 4.3938457e+01 
3.9444737e-02 6.2338209e-01 4.4053139e+01 
-1.8470748e-01 6.5131217e-01 4.3739727e+01 
-7.0938184e-03 5.4737431e-01 4.4052326e+01 
-4.3632981e-01 9.6407413e-01 4.3564159e+01 
7.6947339e-02 5.8804804e-01 4.4200001e+01 
-1.2721874e-02 6.8194175e-01 4.3817982e+01 
-7.7214435e-02 5.8474159e-01 4.3819649e+01 
4.0195532e-02 5.2425718e-01 4.4200001e+01 
-1.9826968e-01 8.4632379e-01 4.3543118e+01 
-9.6842363e-02 7.6872379e-01 4.3607994e+01 
-3.2091641e-01 9.1783977e-01 4.3499420e+01 
-3.9580306e-01 8.5372573e-01 4.3497700e+01 
-2.8348783e-01 7.2729832e-01 4.3537586e+01 
-1.8155001e-01 6.4778340e-01 4.3603539e+01 
1.5678726e-01 5.2239102e-01 4.4060219e+01 
1.0298219e-02 6.6009766e-01 4.3674484e+01 
1.3250886e-01 4.7546524e-01 4.4058990e+01 
-4.3632913e-01 9.6407002e-01 4.3434200e+01 
-5.0139543e-02 5.6696451e-01 4.3671154e+01 
1.3504514e-01 5.4209155e-01 4.3856747e+01 
1.0361936e-01 4.8715758e-01 4.3855240e+01 
2.0846681e-01 4.8028421e-01 4.4200001e+01 
1.9279444e-01 4.4799727e-01 4.4200001e+01 
-9.2261828e-02 7.6722860e-01 4.3470158e+01 
-1.4701239e-03 6.7547697e-01 4.3552124e+01 
-1.9517080e-01 8.4621930e-01 4.3403992e+01 
-3.1956279e-01 9.1811794e-01 4.3368977e+01 
-3.9574999e-01 8.5323322e-01 4.3367252e+01 
-1.7830023e-01 6.4416617e-01 4.3464752e+01 
-6.7131944e-02 5.7555372e-01 4.3547829e+01 
-2.8202194e-01 7.2500783e-01 4.3397518e+01 
-4.3632844e-01 9.6406585e-01 4.3303261e+01 
1.5138821e-01 5.3037512e-01 4.3609200e+01 
1.2119007e-01 4.7490793e-01 4.3606068e+01 
-8.7566733e-02 7.6566672e-01 4.3329563e+01 
-1.7495437e-01 6.4045686e-01 4.3323273e+01 
-3.1819177e-01 9.1839045e-01 4.3237537e+01 
-3.9568463e-01 8.5271639e-01 4.3235813e+01 
2.2269404e-02 6.5294570e-01 4.3398811e+01 
-1.9201367e-01 8.4610778e-01 4.3262066e+01 
-3.8899176e-02 5.5709696e-01 4.3393635e+01 
-2.8052819e-01 7.2267252e-01 4.3254715e+01 
3.7877345e-01 3.8273901e-01 4.4200001e+01 
-4.3632776e-01 9.6406174e-01 4.3171322e+01 
3.9241230e-01 3.7329337e-01 4.3965439e+01 
1.0283732e-02 6.6872352e-01 4.3271511e+01 
-5.6385640e-02 5.6585240e-01 4.3265472e+01 
-8.2753494e-02 7.6403379e-01 4.3186119e+01 
-4.0345609e-01 8.6371827e-01 4.3104889e+01 
-3.1680310e-01 9.1865683e-01 4.3105087e+01 
-1.7150842e-01 6.3665158e-01 4.3179005e+01 
-1.8879703e-01 8.4598809e-01 4.3117241e+01 
-2.7900568e-01 7.2029078e-01 4.3109074e+01 
4.0610775e-01 3.6380205e-01 4.3729839e+01 
1.6776134e-01 5.1882964e-01 4.3331150e+01 
-4.3632707e-01 9.6405768e-01 4.3038357e+01 
1.4031014e-01 4.6124566e-01 4.3307755e+01 
3.4952711e-02 6.4519531e-01 4.3111935e+01 
-7.7818394e-02 7.6232505e-01 4.3039719e+01 
-3.1539652e-01 9.1891652e-01 4.2971603e+01 
-3.9551663e-01 8.5160977e-01 4.2969879e+01 
-2.6899155e-02 5.4666573e-01 4.3105160e+01 
-1.6795819e-01 6.3274628e-01 4.3031849e+01 
-1.8551964e-01 8.4585863e-01 4.2969406e+01 
4.1985780e-01 3.5425979e-01 4.3493168e+01 
-2.7745360e-01 7.1786088e-01 4.2960495e+01 
-4.3632638e-01 9.6405357e-01 4.2904346e+01 
2.2723136e-02 6.6139150e-01 4.2979332e+01 
-4.4916678e-02 5.5559248e-01 4.2971806e+01 
-3.1397179e-01 9.1916907e-01 4.2837063e+01 
-3.9541367e-01 8.5101974e-01 4.2835335e+01 
-7.2757579e-02 7.6053542e-01 4.2890255e+01 
-1.6429928e-01 6.2873662e-01 4.2881699e+01 
1.8463810e-01 5.0694346e-01 4.3035332e+01 
-1.8218029e-01 8.4571803e-01 4.2818455e+01 
1.5503895e-01 4.5003417e-01 4.3027725e+01 
-2.7587104e-01 7.1538109e-01 4.2808868e+01 
4.3366045e-01 3.4466109e-01 4.3255390e+01 
-4.3632573e-01 9.6404958e-01 4.2769268e+01 
-3.8429454e-01 8.3484912e-01 4.2710606e+01 
-3.1252861e-01 9.1941386e-01 4.2701439e+01 
4.8404284e-02 6.3678014e-01 4.2813030e+01 
-1.4070326e-02 5.3562075e-01 4.2804932e+01 
-6.7567028e-02 7.5865942e-01 4.2737610e+01 
-1.6052702e-01 6.2461799e-01 4.2728443e+01 
-1.7877772e-01 8.4556442e-01 4.2664265e+01 
-4.3632504e-01 9.6404558e-01 4.2633099e+01 
-2.7425703e-01 7.1284944e-01 4.2654083e+01 
4.4751364e-01 3.3500037e-01 4.3016472e+01 
3.5901129e-02 6.5341437e-01 4.2674721e+01 
-3.7959340e-01 8.2794034e-01 4.2568317e+01 
-3.1106678e-01 9.1965032e-01 4.2564713e+01 
-3.2659348e-02 5.4472327e-01 4.2665997e+01 
2.0396979e-01 4.9291667e-01 4.2740131e+01 
-6.2242586e-02 7.5669110e-01 4.2581669e+01 
1.7765003e-01 4.3475360e-01 4.2732578e+01 
-1.5663649e-01 6.2038553e-01 4.2571964e+01 
-4.3632439e-01 9.6404165e-01 4.2495808e+01 
-1.7531081e-01 8.4539592e-01 4.2506718e+01 
-2.7261066e-01 7.1026409e-01 4.2496017e+01 
-3.0958602e-01 9.1987789e-01 4.2426853e+01 
-3.7859210e-01 8.2613736e-01 4.2421188e+01 
4.6141517e-01 3.2527190e-01 4.2776375e+01 
6.2686495e-02 6.2762415e-01 4.2501175e+01 
-3.3570320e-04 5.2390522e-01 4.2492062e+01 
-5.6779940e-02 7.5462401e-01 4.2422298e+01 
-4.3632373e-01 9.6403772e-01 4.2357380e+01 
-1.5262254e-01 6.1603409e-01 4.2412144e+01 
-1.7177837e-01 8.4521037e-01 4.2345684e+01 
-2.7093092e-01 7.0762289e-01 4.2334549e+01 
-3.0808610e-01 9.2009580e-01 4.2287842e+01 
-3.8275370e-01 8.3137155e-01 4.2275047e+01 
4.9876589e-02 6.4471585e-01 4.2356720e+01 
-1.9539909e-02 5.3318781e-01 4.2347118e+01 
-4.3632311e-01 9.6403396e-01 4.2217781e+01 
2.1959943e-01 4.8236796e-01 4.2385345e+01 
-5.1174615e-02 7.5245124e-01 4.2259373e+01 
1.9034323e-01 4.2346162e-01 4.2378918e+01 
-1.4847966e-01 6.1155808e-01 4.2248856e+01 
4.7536272e-01 3.1546980e-01 4.2535065e+01 
-1.6817927e-01 8.4500539e-01 4.2181026e+01 
-2.6921678e-01 7.0492369e-01 4.2169544e+01 
-3.0656675e-01 9.2030340e-01 4.2147648e+01 
-3.9470181e-01 8.4769493e-01 4.2145920e+01 
7.7868804e-02 6.1763972e-01 4.2175373e+01 
-4.3632248e-01 9.6403021e-01 4.2076988e+01 
1.4390758e-02 5.1145434e-01 4.2165581e+01 
-4.5421973e-02 7.5016522e-01 4.2092751e+01 
-1.4420210e-01 6.0695171e-01 4.2081959e+01 
-3.0502778e-01 9.2049998e-01 4.2006248e+01 
-4.0175444e-01 8.5747409e-01 4.2004128e+01 
-1.6451253e-01 8.4477836e-01 4.2012604e+01 
4.8935395e-01 3.0558801e-01 4.2292507e+01 
-2.6746723e-01 7.0216429e-01 4.2000870e+01 
6.4714879e-02 6.3520777e-01 4.2024277e+01 
-4.3632188e-01 9.6402657e-01 4.1934975e+01 
-5.4755262e-03 5.2092212e-01 4.2014156e+01 
-2.3078828e-01 8.1064087e-01 4.1931458e+01 
2.3550548e-01 4.7116494e-01 4.2073269e+01 
2.0610523e-01 4.1123796e-01 4.2066772e+01 
-3.9517213e-02 7.4775779e-01 4.1922287e+01 
-1.3978374e-01 6.0220873e-01 4.1911320e+01 
-3.0346894e-01 9.2068475e-01 4.1863613e+01 
-3.9432141e-01 8.4618556e-01 4.1861881e+01 
-1.6077711e-01 8.4452641e-01 4.1840263e+01 
-2.6568118e-01 6.9934219e-01 4.1828377e+01 
-4.3632129e-01 9.6402299e-01 4.1791718e+01 
5.0338638e-01 2.9562023e-01 4.2048656e+01 
9.4028555e-02 6.0672593e-01 4.1834507e+01 
3.0205652e-02 4.9819478e-01 4.1824417e+01 
-3.8116732e-01 8.2744831e-01 4.1725647e+01 
-3.0189002e-01 9.2085695e-01 4.1719719e+01 
-3.3455357e-02 7.4522001e-01 4.1747829e+01 
-1.3521814e-01 5.9732240e-01 4.1736786e+01 
-4.3632072e-01 9.6401960e-01 4.1647179e+01 
-1.5697217e-01 8.4424627e-01 4.1663853e+01 
-2.6385748e-01 6.9645494e-01 4.1651920e+01 
8.0488607e-02 6.2478805e-01 4.1676235e+01 
2.6870471e-01 4.4547972e-01 4.1752304e+01 
9.6269641e-03 5.0785345e-01 4.1665993e+01 
2.4764967e-01 3.8646612e-01 4.1743168e+01 
-3.0029076e-01 9.2101562e-01 4.1574532e+01 
-3.9388368e-01 8.4456980e-01 4.1572796e+01 
5.1745731e-01 2.8556010e-01 4.1803486e+01 
-2.7231261e-02 7.4254233e-01 4.1569210e+01 
-1.3049847e-01 5.9228569e-01 4.1558201e+01 
-4.3632016e-01 9.6401632e-01 4.1501339e+01 
-1.5309690e-01 8.4393430e-01 4.1483204e+01 
-2.6199502e-01 6.9349992e-01 4.1471333e+01 
-2.9867104e-01 9.2115986e-01 4.1428024e+01 
-3.9364263e-01 8.4372103e-01 4.1426289e+01 
1.1125199e-01 5.9476525e-01 4.1477348e+01 
4.7217656e-02 4.8404291e-01 4.1467384e+01 
-4.3631962e-01 9.6401310e-01 4.1354160e+01 
-2.0839609e-02 7.3971421e-01 4.1386261e+01 
-1.2561750e-01 5.8709091e-01 4.1375404e+01 
5.3156406e-01 2.7540097e-01 4.1556946e+01 
-1.4915068e-01 8.4358656e-01 4.1298138e+01 
-2.9703063e-01 9.2128879e-01 4.1280167e+01 
-3.9338648e-01 8.4284443e-01 4.1278431e+01 
-2.6009262e-01 6.9047421e-01 4.1286449e+01 
2.9365057e-01 4.2687622e-01 4.1391586e+01 
9.7278498e-02 6.1333776e-01 4.1311302e+01 
2.7470219e-01 3.6807936e-01 4.1382729e+01 
2.5872495e-02 4.9389899e-01 4.1301384e+01 
-4.3631911e-01 9.6401012e-01 4.1205620e+01 
-1.4274905e-02 7.3672432e-01 4.1198803e+01 
-1.2056758e-01 5.8173001e-01 4.1188221e+01 
-2.9536936e-01 9.2140132e-01 4.1130928e+01 
[...]
POINT_DATA 4496
FIELD FieldData 5
DISPLACEMENT 3 4496  float
9.8408095e-04 1.1799493e-03 -2.0519266e-05 
9.7898976e-04 1.1718678e-03 -2.0518468e-05 
9.8882080e-04 1.1905595e-03 -2.1877013e-05 
9.9550025e-04 1.1846615e-03 -1.4625588e-05 
9.8640437e-04 1.1714411e-03 -1.5159208e-05 
9.8081632e-04 1.1779947e-03 -2.1937703e-05 
9.7386527e-04 1.1637338e-03 -2.0517331e-05 
9.9492283e-04 1.2005983e-03 -2.2034441e-05 
1.0049653e-03 1.1934359e-03 -1.1880808e-05 
9.8979112e-04 1.1927033e-03 -2.2143184e-05 
9.9996896e-04 1.1853254e-03 -1.1799955e-05 
9.8129723e-04 1.1632787e-03 -1.5133301e-05 
9.7564643e-04 1.1699490e-03 -2.2008555e-05 
9.8456570e-04 1.1846594e-03 -2.2253151e-05 
1.0013055e-03 1.2092085e-03 -2.1369095e-05 
9.9488208e-04 1.1770711e-03 -1.1719094e-05 
9.6870773e-04 1.1555461e-03 -2.0515725e-05 
1.0117557e-03 1.2020383e-03 -1.0926296e-05 
9.8742207e-04 1.1724348e-03 -1.4885781e-05 
9.9722063e-04 1.2020143e-03 -2.1056510e-05 
1.0074956e-03 1.1948284e-03 -1.0727469e-05 
9.7044540e-04 1.1618503e-03 -2.2075530e-05 
9.7615732e-04 1.1550644e-03 -1.5108306e-05 
9.7924436e-04 1.1764661e-03 -2.2364582e-05 
9.8970253e-04 1.1686672e-03 -1.1636684e-05 
1.0095078e-03 1.2178028e-03 -1.9427374e-05 
9.8870555e-04 1.1896030e-03 -2.1541246e-05 
9.6352311e-04 1.1473052e-03 -2.0512471e-05 
1.0181932e-03 1.2122351e-03 -1.0918170e-05 
9.9939492e-04 1.1818646e-03 -1.0676938e-05 
9.7382622e-04 1.1681188e-03 -2.2476395e-05 
9.6521276e-04 1.1536978e-03 -2.2144381e-05 
9.7098865e-04 1.1468004e-03 -1.5084610e-05 
1.0009877e-03 1.2033990e-03 -1.9041181e-05 
9.8442705e-04 1.1601117e-03 -1.1554412e-05 
9.8344742e-04 1.1814521e-03 -2.1627451e-05 
1.0092896e-03 1.1978043e-03 -1.0780775e-05 
1.0096045e-03 1.2144629e-03 -1.7892487e-05 
9.9427614e-04 1.1735307e-03 -1.0581390e-05 
1.0166001e-03 1.2101083e-03 -1.1091991e-05 
9.5830328e-04 1.1390181e-03 -2.0510008e-05 
1.0188476e-03 1.2274152e-03 -1.7138327e-05 
9.9463109e-04 1.1944586e-03 -1.9546671e-05 
1.0036757e-03 1.1886109e-03 -1.0652796e-05 
1.0247498e-03 1.2240164e-03 -1.1523374e-05 
9.6830650e-04 1.1596113e-03 -2.2588611e-05 
9.7809348e-04 1.1731470e-03 -2.1712898e-05 
9.5994934e-04 1.1454961e-03 -2.2210503e-05 
9.6578809e-04 1.1384833e-03 -1.5055411e-05 
9.7905821e-04 1.1514012e-03 -1.1471415e-05 
9.8906609e-04 1.1650462e-03 -1.0483992e-05 
1.0192322e-03 1.2257757e-03 -1.6149988e-05 
9.9081371e-04 1.1873203e-03 -1.9073559e-05 
1.0235222e-03 1.2234509e-03 -1.2128397e-05 
9.5305563e-04 1.1306722e-03 -2.0504698e-05 
9.9927187e-04 1.1815291e-03 -1.0607969e-05 
1.0091253e-03 1.2106148e-03 -1.6537560e-05 
1.0141386e-03 1.2076147e-03 -1.1706142e-05 
1.0288222e-03 1.2395943e-03 -1.5535086e-05 
1.0318098e-03 1.2381445e-03 -1.2807808e-05 
9.7264256e-04 1.1646842e-03 -2.1799071e-05 
9.8442507e-04 1.1783389e-03 -1.9583094e-05 
9.6268620e-04 1.1509447e-03 -2.2702130e-05 
9.5465203e-04 1.1372394e-03 -2.2278571e-05 
9.6055790e-04 1.1301164e-03 -1.5029456e-05 
9.8376116e-04 1.1564101e-03 -1.0388535e-05 
9.9346042e-04 1.1720090e-03 -1.0476002e-05 
9.7358733e-04 1.1425308e-03 -1.1389390e-05 
9.4777410e-04 1.1222791e-03 -2.0501238e-05 
1.0001250e-03 1.1961177e-03 -1.6446125e-05 
1.0051113e-03 1.1931321e-03 -1.1629397e-05 
9.6709240e-04 1.1560626e-03 -2.1881175e-05 
9.7835716e-04 1.1476149e-03 -1.0289982e-05 
9.4932772e-04 1.1289362e-03 -2.2342674e-05 
9.5530011e-04 1.1217000e-03 -1.5003535e-05 
9.8027510e-04 1.1706350e-03 -1.9093477e-05 
9.5696177e-04 1.1421100e-03 -2.2814002e-05 
9.8888925e-04 1.1646687e-03 -1.0433797e-05 
9.6801645e-04 1.1334978e-03 -1.1306943e-05 
1.0378511e-03 1.2553603e-03 -1.6167334e-05 
9.4246212e-04 1.1138316e-03 -2.0498688e-05 
1.0291575e-03 1.2414367e-03 -1.6111184e-05 
9.7366108e-04 1.1613261e-03 -1.9617086e-05 
9.8287279e-04 1.1548066e-03 -1.0295927e-05 
9.6144265e-04 1.1472750e-03 -2.1963298e-05 
9.4900548e-04 1.1126036e-03 -1.5401429e-05 
9.4396458e-04 1.1205724e-03 -2.2410659e-05 
9.7285921e-04 1.1386634e-03 -1.0193570e-05 
9.5113303e-04 1.1331110e-03 -2.2925527e-05 
9.6234935e-04 1.1243040e-03 -1.1220484e-05 
1.0204137e-03 1.2274359e-03 -1.6053387e-05 
9.8986633e-04 1.1796553e-03 -1.6366070e-05 
9.3711686e-04 1.1053379e-03 -2.0496218e-05 
9.9420815e-04 1.1756208e-03 -1.1528818e-05 
9.6935657e-04 1.1533116e-03 -1.9100096e-05 
9.5569046e-04 1.1383216e-03 -2.2041429e-05 
9.3858480e-04 1.1121666e-03 -2.2470693e-05 
9.4468653e-04 1.1047069e-03 -1.4947177e-05 
9.7812491e-04 1.1471966e-03 -1.0258337e-05 
9.6725533e-04 1.1295459e-03 -1.0093726e-05 
9.4519649e-04 1.1239346e-03 -2.3034831e-05 
1.0116212e-03 1.2133407e-03 -1.5993701e-05 
9.5657143e-04 1.1149369e-03 -1.1139010e-05 
9.3175436e-04 1.0967863e-03 -2.0487600e-05 
9.6250966e-04 1.1436600e-03 -1.9636500e-05 
9.7189640e-04 1.1369792e-03 -1.0116482e-05 
9.3317067e-04 1.1037075e-03 -2.2536949e-05 
9.3934406e-04 1.0961423e-03 -1.4922713e-05 
9.4983436e-04 1.1291945e-03 -2.2118615e-05 
9.6155610e-04 1.1202673e-03 -9.9990539e-06 
9.7893015e-04 1.1621017e-03 -1.6283480e-05 
9.3914883e-04 1.1145792e-03 -2.3142031e-05 
9.8383601e-04 1.1589001e-03 -1.1410149e-05 
9.5069647e-04 1.1054084e-03 -1.1060338e-05 
1.0027890e-03 1.1991846e-03 -1.5942478e-05 
9.2635327e-04 1.0882022e-03 -2.0481202e-05 
9.3582564e-04 1.0892308e-03 -1.4339293e-05 
9.2773407e-04 1.0952114e-03 -2.2591988e-05 
9.5804641e-04 1.1353282e-03 -1.9090829e-05 
9.6696627e-04 1.1290951e-03 -1.0087210e-05 
9.4386836e-04 1.1198976e-03 -2.2192462e-05 
9.5574657e-04 1.1108193e-03 -9.8988376e-06 
9.3299948e-04 1.1050599e-03 -2.3247127e-05 
9.2093291e-04 1.0795675e-03 -2.0470728e-05 
9.4470830e-04 1.0956912e-03 -1.0978158e-05 
9.9391257e-04 1.1849509e-03 -1.5881024e-05 
9.5095905e-04 1.1253230e-03 -1.9639552e-05 
9.3077827e-04 1.0806356e-03 -1.4087574e-05 
9.2227332e-04 1.0866629e-03 -2.2639850e-05 
9.6051831e-04 1.1185114e-03 -9.9405288e-06 
9.6823729e-04 1.1448478e-03 -1.6162341e-05 
9.3780784e-04 1.1104245e-03 -2.2267664e-05 
9.7323663e-04 1.1419621e-03 -1.1355953e-05 
9.4984006e-04 1.1012041e-03 -9.8149740e-06 
9.1549306e-04 1.0708832e-03 -2.0451527e-05 
9.2673179e-04 1.0953553e-03 -2.3356521e-05 
9.3861314e-04 1.0858139e-03 -1.0900982e-05 
9.1677922e-04 1.0780729e-03 -2.2696684e-05 
9.2508912e-04 1.0714369e-03 -1.4025037e-05 
9.8502287e-04 1.1706926e-03 -1.5815122e-05 
9.4633794e-04 1.1166645e-03 -1.9058984e-05 
9.5540658e-04 1.1103466e-03 -9.9164563e-06 
9.3163614e-04 1.1007765e-03 -2.2326332e-05 
9.1002107e-04 1.0621697e-03 -2.0440008e-05 
9.4382250e-04 1.0914162e-03 -9.7214524e-06 
9.2035683e-04 1.0854700e-03 -2.3455534e-05 
9.3241088e-04 1.0757612e-03 -1.0824217e-05 
9.1127213e-04 1.0694480e-03 -2.2746310e-05 
9.1882492e-04 1.0618691e-03 -1.4204222e-05 
9.3900610e-04 1.1062875e-03 -1.9617426e-05 
9.4874564e-04 1.0993892e-03 -9.7646534e-06 
9.0453395e-04 1.0534234e-03 -2.0426001e-05 
9.5487788e-04 1.1235125e-03 -1.6114391e-05 
9.2536036e-04 1.0909537e-03 -2.2380698e-05 
9.5996296e-04 1.1204495e-03 -1.1173090e-05 
9.3770330e-04 1.0814667e-03 -9.6321473e-06 
9.7609713e-04 1.1563656e-03 -1.5742540e-05 
9.1387081e-04 1.0754027e-03 -2.3552109e-05 
9.2609634e-04 1.0655306e-03 -1.0749660e-05 
9.0575329e-04 1.0607961e-03 -2.2788890e-05 
9.1226381e-04 1.0527089e-03 -1.4769137e-05 
9.3423558e-04 1.0973193e-03 -1.9005291e-05 
8.9902739e-04 1.0446324e-03 -2.0414916e-05 
9.4344979e-04 1.0909531e-03 -9.7622888e-06 
9.1897993e-04 1.0809541e-03 -2.2431455e-05 
9.3149178e-04 1.0713447e-03 -9.5374189e-06 
9.0019015e-04 1.0520808e-03 -2.2847149e-05 
9.0580317e-04 1.0432171e-03 -1.5117125e-05 
9.0727222e-04 1.0651523e-03 -2.3644598e-05 
9.6715958e-04 1.1420004e-03 -1.5670903e-05 
9.1969164e-04 1.0551373e-03 -1.0667752e-05 
9.2666293e-04 1.0865791e-03 -1.9570629e-05 
8.9347357e-04 1.0357938e-03 -2.0408197e-05 
9.3657384e-04 1.0796217e-03 -9.6032036e-06 
9.0718060e-04 1.0541093e-03 -1.8887933e-05 
9.4339624e-04 1.1050786e-03 -1.6034443e-05 
9.4854279e-04 1.1020172e-03 -1.1062652e-05 
9.1249775e-04 1.0707849e-03 -2.2480446e-05 
9.2517288e-04 1.0610595e-03 -9.4436491e-06 
8.9460268e-04 1.0433242e-03 -2.2894092e-05 
9.0124534e-04 1.0350286e-03 -1.4714645e-05 
9.0055965e-04 1.0547310e-03 -2.3739743e-05 
9.1317907e-04 1.0445451e-03 -1.0587632e-05 
8.8790787e-04 1.0269082e-03 -2.0388843e-05 
9.5823704e-04 1.1276525e-03 -1.5602160e-05 
9.2173909e-04 1.0772876e-03 -1.8928467e-05 
9.3109487e-04 1.0709115e-03 -9.6143403e-06 
8.9764036e-04 1.0277752e-03 -1.4056013e-05 
8.8901556e-04 1.0345473e-03 -2.2926768e-05 
9.0589852e-04 1.0604159e-03 -2.2525310e-05 
9.1874087e-04 1.0505830e-03 -9.3474091e-06 
8.8233524e-04 1.0179861e-03 -2.0359319e-05 
8.9373626e-04 1.0441027e-03 -2.3830235e-05 
9.0653641e-04 1.0337693e-03 -1.0519713e-05 
9.1391330e-04 1.0661681e-03 -1.9496945e-05 
9.3296188e-04 1.0877887e-03 -1.5725884e-05 
9.2398160e-04 1.0591812e-03 -9.4499619e-06 
9.3788939e-04 1.0853253e-03 -1.1189170e-05 
8.8339567e-04 1.0257282e-03 -2.2969538e-05 
8.9019031e-04 1.0172297e-03 -1.4639466e-05 
9.4936171e-04 1.1133695e-03 -1.5527432e-05 
8.9919445e-04 1.0498604e-03 -2.2563627e-05 
9.1221102e-04 1.0399406e-03 -9.2714827e-06 
8.7674515e-04 1.0090568e-03 -2.0336367e-05 
8.8679325e-04 1.0332880e-03 -2.3904582e-05 
8.9978910e-04 1.0228234e-03 -1.0459948e-05 
8.7777822e-04 1.0168863e-03 -2.2998032e-05 
8.8463520e-04 1.0083034e-03 -1.4617721e-05 
9.0883748e-04 1.0565396e-03 -1.8815921e-05 
9.1833581e-04 1.0502101e-03 -9.4652914e-06 
8.7113120e-04 1.0001131e-03 -2.0321573e-05 
8.9238217e-04 1.0391292e-03 -2.2585260e-05 
9.0557180e-04 1.0291208e-03 -9.1795873e-06 
9.4047491e-04 1.0990405e-03 -1.5433337e-05 
8.7974063e-04 1.0222944e-03 -2.3971841e-05 
8.7213947e-04 1.0080343e-03 -2.3026632e-05 
8.7905477e-04 9.9933671e-04 -1.4576120e-05 
8.9293875e-04 1.0116902e-03 -1.0375975e-05 
9.2045311e-04 1.0674630e-03 -1.5536969e-05 
9.0076227e-04 1.0450248e-03 -1.9396848e-05 
9.2534116e-04 1.0652300e-03 -1.1148830e-05 
9.1100700e-04 1.0380782e-03 -9.2928203e-06 
8.6551579e-04 9.9110487e-04 -2.0298303e-05 
8.8547484e-04 1.0282120e-03 -2.2613751e-05 
8.9881453e-04 1.0181199e-03 -9.0918884e-06 
8.6648378e-04 9.9911657e-04 -2.3063612e-05 
8.7348314e-04 9.9033630e-04 -1.4550181e-05 
8.7257917e-04 1.0110938e-03 -2.4050943e-05 
8.8597299e-04 1.0003822e-03 -1.0313293e-05 
9.3162176e-04 1.0847528e-03 -1.5348029e-05 
8.5987092e-04 9.8209316e-04 -2.0279953e-05 
8.9554465e-04 1.0350720e-03 -1.8679399e-05 
9.0515724e-04 1.0288106e-03 -9.3352155e-06 
8.6081593e-04 9.9019497e-04 -2.3098084e-05 
8.6787797e-04 9.8131062e-04 -1.4512362e-05 
8.7844144e-04 1.0170853e-03 -2.2622142e-05 
8.9196995e-04 1.0069495e-03 -9.0159629e-06 
8.5423107e-04 9.7303506e-04 -2.0249245e-05 
8.6530723e-04 9.9970761e-04 -2.4100404e-05 
8.7888469e-04 9.8887994e-04 -1.0239985e-05 
9.0756436e-04 1.0464534e-03 -1.5336658e-05 
9.1240718e-04 1.0444846e-03 -1.1107927e-05 
8.8874111e-04 1.0240503e-03 -1.8574337e-05 
9.2283101e-04 1.0705385e-03 -1.5262684e-05 
8.5515244e-04 9.8123786e-04 -2.3108722e-05 
8.6228322e-04 9.7228203e-04 -1.4498537e-05 
8.9840632e-04 1.0178755e-03 -9.2617584e-06 
8.7132643e-04 1.0057935e-03 -2.2622466e-05 
8.8500255e-04 9.9559117e-04 -8.9394616e-06 
8.4856991e-04 9.6399733e-04 -2.0227579e-05 
8.5790252e-04 9.8811882e-04 -2.4157080e-05 
8.7172294e-04 9.7720616e-04 -1.0178511e-05 
8.4948033e-04 9.7230938e-04 -2.3117422e-05 
8.5666392e-04 9.6323283e-04 -1.4458850e-05 
8.8185456e-04 1.0128579e-03 -1.8479821e-05 
8.6437416e-04 9.7640825e-04 -1.4829881e-05 
8.9157594e-04 1.0067762e-03 -9.2145128e-06 
8.4291445e-04 9.5491367e-04 -2.0187947e-05 
9.1402692e-04 1.0562580e-03 -1.5161473e-05 
8.9580525e-04 1.0277656e-03 -1.5367303e-05 
8.6410070e-04 9.9431397e-04 -2.2584232e-05 
9.0073078e-04 1.0250870e-03 -1.0802261e-05 
8.7795377e-04 9.8409574e-04 -8.8634242e-06 
8.4379024e-04 9.6331310e-04 -2.3109318e-05 
8.5104431e-04 9.5416757e-04 -1.4426540e-05 
8.5045077e-04 9.7638852e-04 -2.4162684e-05 
8.6442870e-04 9.6537889e-04 -1.0151536e-05 
8.3725282e-04 9.4585237e-04 -2.0166470e-05 
8.7488524e-04 1.0015063e-03 -1.8387600e-05 
8.8464579e-04 9.9551852e-04 -9.1524807e-06 
8.5679616e-04 9.8267233e-04 -2.2568500e-05 
8.3812827e-04 9.5433451e-04 -2.3115854e-05 
8.4544538e-04 9.4510423e-04 -1.4392367e-05 
8.7079412e-04 9.7242405e-04 -8.7770959e-06 
9.0525491e-04 1.0420965e-03 -1.5089890e-05 
8.4285729e-04 9.6445571e-04 -2.4212473e-05 
8.3159585e-04 9.3676470e-04 -2.0131631e-05 
8.9382712e-04 1.0152254e-03 -1.1350985e-05 
8.9047255e-04 1.0175880e-03 -1.4670934e-05 
8.5704768e-04 9.5337455e-04 -1.0073383e-05 
8.6782518e-04 9.8999171e-04 -1.8264605e-05 
8.7760837e-04 9.8408584e-04 -9.1102556e-06 
8.3244499e-04 9.4533840e-04 -2.3127270e-05 
8.3982368e-04 9.3602575e-04 -1.4358756e-05 
8.4938068e-04 9.7083452e-04 -2.2543378e-05 
8.6355413e-04 9.6057961e-04 -8.7061935e-06 
8.2591374e-04 9.2765363e-04 -2.0092830e-05 
8.9656777e-04 1.0279733e-03 -1.4967799e-05 
8.3513837e-04 9.5231610e-04 -2.4254901e-05 
8.4955920e-04 9.4117445e-04 -9.9985000e-06 
8.2673557e-04 9.3632552e-04 -2.3133931e-05 
8.3416549e-04 9.2691905e-04 -1.4330915e-05 
8.8521460e-04 1.0012264e-03 -1.1273645e-05 
8.8187453e-04 1.0036193e-03 -1.4575020e-05 
8.6044229e-04 9.7801152e-04 -1.8149649e-05 
8.7018474e-04 9.7200536e-04 -9.0525737e-06 
8.3773118e-04 9.3851372e-04 -1.6754650e-05 
8.2024437e-04 9.1854582e-04 -2.0043904e-05 
8.4172125e-04 9.5872796e-04 -2.2550486e-05 
8.5604825e-04 9.4835006e-04 -8.6694081e-06 
8.2102133e-04 9.2717411e-04 -2.3076023e-05 
8.2844443e-04 9.1782451e-04 -1.4373918e-05 
8.2748104e-04 9.4022159e-04 -2.4227689e-05 
8.8796759e-04 1.0139748e-03 -1.4841481e-05 
8.4215699e-04 9.2916179e-04 -9.9704612e-06 
8.1466947e-04 9.0963271e-04 -2.0020549e-05 
8.5231144e-04 9.6530368e-04 -1.8247289e-05 
8.6243986e-04 9.5924968e-04 -8.9408641e-06 
8.7674987e-04 9.8746223e-04 -1.1189208e-05 
8.7343185e-04 9.8986435e-04 -1.4454959e-05 
8.3007303e-04 9.2634530e-04 -1.6782105e-05 
8.1543572e-04 9.1822643e-04 -2.3008317e-05 
8.3391200e-04 9.4652886e-04 -2.2604387e-05 
8.2281389e-04 9.0886344e-04 -1.4395661e-05 
8.4859598e-04 9.3621988e-04 -8.6265936e-06 
8.0921990e-04 9.0082875e-04 -1.9962814e-05 
8.2008558e-04 9.2850678e-04 -2.4205974e-05 
8.3497714e-04 9.1751089e-04 -9.9456356e-06 
8.7947643e-04 1.0001217e-03 -1.4721321e-05 
8.4430684e-04 9.5300528e-04 -1.8442543e-05 
8.5494883e-04 9.4690098e-04 -8.8441193e-06 
8.0990570e-04 9.0937194e-04 -2.2975733e-05 
8.1727660e-04 9.0006139e-04 -1.4424517e-05 
8.6038961e-04 9.7025844e-04 -1.4967626e-05 
8.6538942e-04 9.6759410e-04 -1.0492128e-05 
8.2636019e-04 9.3471649e-04 -2.2659293e-05 
8.4134802e-04 9.2439097e-04 -8.5768788e-06 
8.2091079e-04 9.1166317e-04 -1.6742137e-05 
8.0384623e-04 8.9220074e-04 -1.9926891e-05 
8.2800857e-04 9.0615684e-04 -9.8990413e-06 
8.1288157e-04 9.1709202e-04 -2.4177476e-05 
8.0450892e-04 9.0068049e-04 -2.2922324e-05 
8.1184035e-04 8.9141971e-04 -1.4452275e-05 
8.4765052e-04 9.3488122e-04 -8.7395711e-06 
8.3653739e-04 9.4105490e-04 -1.8631297e-05 
8.7112637e-04 9.8652113e-04 -1.4625275e-05 
7.9854002e-04 8.8370260e-04 -1.9899358e-05 
8.3429314e-04 9.1289420e-04 -8.5268730e-06 
8.1901072e-04 9.2324230e-04 -2.2714321e-05 
8.5696281e-04 9.6300652e-04 -1.4278914e-05 
8.5702102e-04 9.5416157e-04 -1.0548246e-05 
7.9917297e-04 8.9212455e-04 -2.2861885e-05 
8.0592965e-04 8.8240654e-04 -1.4620398e-05 
8.2124741e-04 8.9508423e-04 -9.8106348e-06 
8.0589997e-04 9.0605643e-04 -2.4190611e-05 
8.0752058e-04 8.9203566e-04 -1.7441807e-05 
7.9332857e-04 8.7528338e-04 -1.9835110e-05 
8.4051606e-04 9.2316739e-04 -8.6745786e-06 
8.3330530e-04 9.3271321e-04 -1.7327193e-05 
8.2740560e-04 9.0171833e-04 -8.5265783e-06 
8.1189757e-04 9.1206428e-04 -2.2758744e-05 
7.9391466e-04 8.8365958e-04 -2.2788272e-05 
8.6298643e-04 9.7322988e-04 -1.4549584e-05 
8.0118555e-04 8.7444967e-04 -1.4474242e-05 
8.0980809e-04 8.9114538e-04 -1.5613397e-05 
8.4954943e-04 9.4194821e-04 -1.0453095e-05 
7.8819989e-04 8.6703972e-04 -1.9791507e-05 
8.1459287e-04 8.8434457e-04 -9.8280925e-06 
7.9911348e-04 8.9525647e-04 -2.4139285e-05 
8.4891764e-04 9.4986946e-04 -1.4163505e-05 
8.3359150e-04 9.1180048e-04 -8.5645070e-06 
8.2169339e-04 9.1814442e-04 -1.8885505e-05 
7.8875292e-04 8.7536447e-04 -2.2751039e-05 
7.9600891e-04 8.6619001e-04 -1.4491324e-05 
8.2072977e-04 8.9085166e-04 -8.4760386e-06 
8.0499263e-04 9.0119668e-04 -2.2771923e-05 
7.9942867e-04 8.7487814e-04 -1.5745594e-05 
7.8314275e-04 8.5891818e-04 -1.9751098e-05 
8.5493497e-04 9.6008874e-04 -1.4480997e-05 
8.0816576e-04 8.7386306e-04 -9.7602097e-06 
7.9250813e-04 8.8478002e-04 -2.4114201e-05 
8.4010960e-04 9.2546263e-04 -9.9195177e-06 
8.3299313e-04 9.2709379e-04 -1.5246047e-05 
7.8366301e-04 8.6718623e-04 -2.2693717e-05 
8.2686043e-04 9.0071169e-04 -8.4777021e-06 
7.9298479e-04 8.5903372e-04 -1.3553610e-05 
8.1460661e-04 9.0720615e-04 -1.9025398e-05 
7.7813835e-04 8.5089507e-04 -1.9716232e-05 
8.1421406e-04 8.8023540e-04 -8.4179483e-06 
7.9826877e-04 8.9065148e-04 -2.2782655e-05 
7.8584423e-04 8.5001986e-04 -1.4521837e-05 
7.7804434e-04 8.5758930e-04 -2.2404703e-05 
8.0190698e-04 8.6365524e-04 -9.7195598e-06 
7.8606943e-04 8.7456673e-04 -2.4091836e-05 
8.4700499e-04 9.4707817e-04 -1.4367751e-05 
7.8819448e-04 8.6259824e-04 -1.7977769e-05 
8.2030741e-04 8.8994944e-04 -8.4053891e-06 
8.0767728e-04 8.9652202e-04 -1.9157154e-05 
7.7322219e-04 8.4303651e-04 -1.9690944e-05 
8.0784870e-04 8.6995220e-04 -8.4126696e-06 
8.3321147e-04 9.2410122e-04 -1.3969276e-05 
8.3641632e-04 9.2170597e-04 -1.0890356e-05 
7.8428118e-04 8.4508496e-04 -1.3561474e-05 
7.9170463e-04 8.8031933e-04 -2.2775725e-05 
7.7484123e-04 8.5371459e-04 -2.2854745e-05 
8.2611275e-04 9.0109865e-04 -9.1689444e-06 
8.1773446e-04 9.0454449e-04 -1.5979629e-05 
7.9575938e-04 8.5372216e-04 -9.7108623e-06 
7.7987631e-04 8.6462597e-04 -2.3979130e-05 
7.6841289e-04 8.3529507e-04 -1.9636809e-05 
8.1390777e-04 8.7944290e-04 -8.3260620e-06 
8.0098945e-04 8.8617951e-04 -1.9265219e-05 
8.3910342e-04 9.3411328e-04 -1.4248744e-05 
7.8006298e-04 8.3736418e-04 -1.3159848e-05 
7.6960918e-04 8.4542239e-04 -2.2824705e-05 
8.0167153e-04 8.5987139e-04 -8.3882005e-06 
7.8537146e-04 8.7033410e-04 -2.2796119e-05 
7.6368143e-04 8.2764745e-04 -1.9584171e-05 
8.2550140e-04 9.1146526e-04 -1.3852179e-05 
8.2866731e-04 9.0908638e-04 -1.0828558e-05 
7.8980805e-04 8.4399647e-04 -9.6409422e-06 
7.7382819e-04 8.5500180e-04 -2.3938284e-05 
8.0766354e-04 8.6919498e-04 -8.2642591e-06 
7.6435291e-04 8.3681761e-04 -2.2714145e-05 
7.9181977e-04 8.7343238e-04 -1.9986570e-05 
8.1512716e-04 8.8299933e-04 -9.0178501e-06 
7.7400554e-04 8.2763750e-04 -1.3165966e-05 
7.9562236e-04 8.5006625e-04 -8.3753912e-06 
7.7922334e-04 8.6058094e-04 -2.2779510e-05 
7.5897825e-04 8.2012470e-04 -1.9532956e-05 
8.3139923e-04 9.2141127e-04 -1.4106005e-05 
7.7097170e-04 8.3475088e-04 -1.7787419e-05 
7.8398699e-04 8.3457166e-04 -9.5964751e-06 
8.0543983e-04 8.8397012e-04 -1.5616224e-05 
7.5911370e-04 8.2719541e-04 -2.2162663e-05 
7.6792960e-04 8.4554410e-04 -2.3885810e-05 
7.6647272e-04 8.1921119e-04 -1.4556875e-05 
8.0157391e-04 8.5922529e-04 -8.1973167e-06 
8.1795530e-04 8.9904940e-04 -1.3706566e-05 
8.2109938e-04 8.9668552e-04 -1.0716773e-05 
7.8813452e-04 8.6624344e-04 -1.9473979e-05 
7.7155931e-04 8.2129345e-04 -1.2214574e-05 
7.5436448e-04 8.1273116e-04 -1.9491055e-05 
7.8973745e-04 8.4052805e-04 -8.3232399e-06 
7.7321025e-04 8.5108023e-04 -2.2763101e-05 
7.6214934e-04 8.1270008e-04 -1.4697369e-05 
7.5479096e-04 8.2064886e-04 -2.2257787e-05 
7.7831064e-04 8.2531915e-04 -9.5577952e-06 
7.6217926e-04 8.3639304e-04 -2.3810711e-05 
8.2380499e-04 9.0894458e-04 -1.3991509e-05 
7.9561048e-04 8.4949040e-04 -8.1413982e-06 
7.4982835e-04 8.0543145e-04 -1.9437673e-05 
7.7942922e-04 8.5412723e-04 -2.0117543e-05 
7.6325703e-04 8.0991647e-04 -1.2928340e-05 
8.0445595e-04 8.6575752e-04 -9.0095946e-06 
7.8396819e-04 8.3119096e-04 -8.3058276e-06 
7.7163515e-04 8.2749041e-04 -1.4525639e-05 
7.5150322e-04 8.1642932e-04 -2.2621902e-05 
8.1053091e-04 8.8684226e-04 -1.3620031e-05 
7.6736603e-04 8.4181566e-04 -2.2751949e-05 
8.1365049e-04 8.8449818e-04 -1.0666217e-05 
7.7274593e-04 8.1635173e-04 -9.5597343e-06 
7.9269911e-04 8.6408999e-04 -1.5794658e-05 