# vtk DataFile Version 4.0
vtk output
ASCII
DATASET UNSTRUCTURED_GRID
POINTS 4496 float
-4.3633327e-01 9.6409470e-01 4.4200001e+01 
-4.3633258e-01 9.6409065e-01 4.4074627e+01 
-3.2152572e-01 9.1279918e-01 4.4200001e+01 
-3.8534868e-01 8.4052670e-01 4.4200001e+01 
-3.9589554e-01 8.5545403e-01 4.4010014e+01 
-3.2616228e-01 9.1667932e-01 4.4011734e+01 
-4.3633190e-01 9.6408653e-01 4.3948376e+01 
-2.1293370e-01 8.4677851e-01 4.4200001e+01 
-2.9042658e-01 7.3813015e-01 4.4200001e+01 
-2.1010752e-01 8.4669363e-01 4.4073502e+01 
-2.8908840e-01 7.3604190e-01 4.4072292e+01 
-3.9589015e-01 8.5505831e-01 4.3883316e+01 
-3.2487559e-01 9.1697580e-01 4.3885036e+01 
-2.0722924e-01 8.4660655e-01 4.3944645e+01 
-1.1981077e-01 7.7773046e-01 4.4200001e+01 
-2.8772619e-01 7.3391593e-01 4.3942276e+01 
-4.3633121e-01 9.6408242e-01 4.3821228e+01 
-1.9739023e-01 6.6468561e-01 4.4200001e+01 
-2.9444304e-01 7.8727525e-01 4.3879974e+01 
-8.7554991e-02 7.5255024e-01 4.4042213e+01 
-1.6445170e-01 6.4084798e-01 4.4041008e+01 
-3.2357255e-01 9.1726828e-01 4.3757431e+01 
-3.9587301e-01 8.5463828e-01 4.3755711e+01 
-2.0429766e-01 8.4651643e-01 4.3813354e+01 
-2.8633916e-01 7.3175091e-01 4.3809875e+01 
-2.6899619e-02 6.8901783e-01 4.4200001e+01 
-1.0567340e-01 7.7152997e-01 4.3875790e+01 
-4.3633053e-01 9.6407831e-01 4.3693161e+01 
-8.7133333e-02 5.9509218e-01 4.4200001e+01 
-1.8777622e-01 6.5475601e-01 4.3873402e+01 
-2.0131156e-01 8.4642249e-01 4.3679543e+01 
-3.2225290e-01 9.1755641e-01 4.3628902e+01 
-3.9584404e-01 8.5419410e-01 4.3627178e+01 
-1.0114321e-03 6.6670936e-01 4.3939713e+01 
-2.8492665e-01 7.2954547e-01 4.3675007e+01 
-1.0131179e-01 7.7015632e-01 4.3743176e+01 
-6.0682178e-02 5.7631296e-01 4.3938457e+01 
3.9444737e-02 6.2338209e-01 4.4053139e+01 
-1.8470748e-01 6.5131217e-01 4.3739727e+01 
-7.0938184e-03 5.4737431e-01 4.4052326e+01 
-4.3632981e-01 9.6407413e-01 4.3564159e+01 
7.6947339e-02 5.8804804e-01 4.4200001e+01 
-1.2721874e-02 6.8194175e-01 4.3817982e+01 
-7.7214435e-02 5.8474159e-01 4.3819649e+01 
4.0195532e-02 5.2425718e-01 4.4200001e+01 
-1.9826968e-01 8.4632379e-01 4.3543118e+01 
-9.6842363e-02 7.6872379e-01 4.3607994e+01 
-3.2091641e-01 9.1783977e-01 4.3499420e+01 
-3.9580306e-01 8.5372573e-01 4.3497700e+01 
-2.8348783e-01 7.2729832e-01 4.3537586e+01 
-1.8155001e-01 6.4778340e-01 4.3603539e+01 
1.5678726e-01 5.2239102e-01 4.4060219e+01 
1.0298219e-02 6.6009766e-01 4.3674484e+01 
1.3250886e-01 4.7546524e-01 4.4058990e+01 
-4.3632913e-01 9.6407002e-01 4.3434200e+01 
-5.0139543e-02 5.6696451e-01 4.3671154e+01 
1.3504514e-01 5.4209155e-01 4.3856747e+01 
1.0361936e-01 4.8715758e-01 4.3855240e+01 
2.0846681e-01 4.8028421e-01 4.4200001e+01 
1.9279444e-01 4.4799727e-01 4.4200001e+01 
-9.2261828e-02 7.6722860e-01 4.3470158e+01 
-1.4701239e-03 6.7547697e-01 4.3552124e+01 
-1.9517080e-01 8.4621930e-01 4.3403992e+01 
-3.1956279e-01 9.1811794e-01 4.3368977e+01 
-3.9574999e-01 8.5323322e-01 4.3367252e+01 
-1.7830023e-01 6.4416617e-01 4.3464752e+01 
-6.7131944e-02 5.7555372e-01 4.3547829e+01 
-2.8202194e-01 7.2500783e-01 4.3397518e+01 
-4.3632844e-01 9.6406585e-01 4.3303261e+01 
1.5138821e-01 5.3037512e-01 4.3609200e+01 
1.2119007e-01 4.7490793e-01 4.3606068e+01 
-8.7566733e-02 7.6566672e-01 4.3329563e+01 
-1.7495437e-01 6.4045686e-01 4.3323273e+01 
-3.1819177e-01 9.1839045e-01 4.3237537e+01 
-3.9568463e-01 8.5271639e-01 4.3235813e+01 
2.2269404e-02 6.5294570e-01 4.3398811e+01 
-1.9201367e-01 8.4610778e-01 4.3262066e+01 
-3.8899176e-02 5.5709696e-01 4.3393635e+01 
-2.8052819e-01 7.2267252e-01 4.3254715e+01 
3.7877345e-01 3.8273901e-01 4.4200001e+01 
-4.3632776e-01 9.6406174e-01 4.3171322e+01 
3.9241230e-01 3.7329337e-01 4.3965439e+01 
1.0283732e-02 6.6872352e-01 4.3271511e+01 
-5.6385640e-02 5.6585240e-01 4.3265472e+01 
-8.2753494e-02 7.6403379e-01 4.3186119e+01 
-4.0345609e-01 8.6371827e-01 4.3104889e+01 
-3.1680310e-01 9.1865683e-01 4.3105087e+01 
-1.7150842e-01 6.3665158e-01 4.3179005e+01 
-1.8879703e-01 8.4598809e-01 4.3117241e+01 
-2.7900568e-01 7.2029078e-01 4.3109074e+01 
4.0610775e-01 3.6380205e-01 4.3729839e+01 
1.6776134e-01 5.1882964e-01 4.3331150e+01 
-4.3632707e-01 9.6405768e-01 4.3038357e+01 
1.4031014e-01 4.6124566e-01 4.3307755e+01 
3.4952711e-02 6.4519531e-01 4.3111935e+01 
-7.7818394e-02 7.6232505e-01 4.3039719e+01 
-3.1539652e-01 9.1891652e-01 4.2971603e+01 
-3.9551663e-01 8.5160977e-01 4.2969879e+01 
-2.6899155e-02 5.4666573e-01 4.3105160e+01 
-1.6795819e-01 6.3274628e-01 4.3031849e+01 
-1.8551964e-01 8.4585863e-01 4.2969406e+01 
4.1985780e-01 3.5425979e-01 4.3493168e+01 
-2.7745360e-01 7.1786088e-01 4.2960495e+01 
-4.3632638e-01 9.6405357e-01 4.2904346e+01 
2.2723136e-02 6.6139150e-01 4.2979332e+01 
-4.4916678e-02 5.5559248e-01 4.2971806e+01 
-3.1397179e-01 9.1916907e-01 4.2837063e+01 
-3.9541367e-01 8.5101974e-01 4.2835335e+01 
-7.2757579e-02 7.6053542e-01 4.2890255e+01 
-1.6429928e-01 6.2873662e-01 4.2881699e+01 
1.8463810e-01 5.0694346e-01 4.3035332e+01 
-1.8218029e-01 8.4571803e-01 4.2818455e+01 
1.5503895e-01 4.5003417e-01 4.3027725e+01 
-2.7587104e-01 7.1538109e-01 4.2808868e+01 
4.3366045e-01 3.4466109e-01 4.3255390e+01 
-4.3632573e-01 9.6404958e-01 4.2769268e+01 
-3.8429454e-01 8.3484912e-01 4.2710606e+01 
-3.1252861e-01 9.1941386e-01 4.2701439e+01 
4.8404284e-02 6.3678014e-01 4.2813030e+01 
-1.4070326e-02 5.3562075e-01 4.2804932e+01 
-6.7567028e-02 7.5865942e-01 4.2737610e+01 
-1.6052702e-01 6.2461799e-01 4.2728443e+01 
-1.7877772e-01 8.4556442e-01 4.2664265e+01 
-4.3632504e-01 9.6404558e-01 4.2633099e+01 
-2.7425703e-01 7.1284944e-01 4.2654083e+01 
4.4751364e-01 3.3500037e-01 4.3016472e+01 
3.5901129e-02 6.5341437e-01 4.2674721e+01 
-3.7959340e-01 8.2794034e-01 4.2568317e+01 
-3.1106678e-01 9.1965032e-01 4.2564713e+01 
-3.2659348e-02 5.4472327e-01 4.2665997e+01 
2.0396979e-01 4.9291667e-01 4.2740131e+01 
-6.2242586e-02 7.5669110e-01 4.2581669e+01 
1.7765003e-01 4.3475360e-01 4.2732578e+01 
-1.5663649e-01 6.2038553e-01 4.2571964e+01 
-4.3632439e-01 9.6404165e-01 4.2495808e+01 
-1.7531081e-01 8.4539592e-01 4.2506718e+01 
-2.7261066e-01 7.1026409e-01 4.2496017e+01 
-3.0958602e-01 9.1987789e-01 4.2426853e+01 
-3.7859210e-01 8.2613736e-01 4.2421188e+01 
4.6141517e-01 3.2527190e-01 4.2776375e+01 
6.2686495e-02 6.2762415e-01 4.2501175e+01 
-3.3570320e-04 5.2390522e-01 4.2492062e+01 
-5.6779940e-02 7.5462401e-01 4.2422298e+01 
-4.3632373e-01 9.6403772e-01 4.2357380e+01 
-1.5262254e-01 6.1603409e-01 4.2412144e+01 
-1.7177837e-01 8.4521037e-01 4.2345684e+01 
-2.7093092e-01 7.0762289e-01 4.2334549e+01 
-3.0808610e-01 9.2009580e-01 4.2287842e+01 
-3.8275370e-01 8.3137155e-01 4.2275047e+01 
4.9876589e-02 6.4471585e-01 4.2356720e+01 
-1.9539909e-02 5.3318781e-01 4.2347118e+01 
-4.3632311e-01 9.6403396e-01 4.2217781e+01 
2.1959943e-01 4.8236796e-01 4.2385345e+01 
-5.1174615e-02 7.5245124e-01 4.2259373e+01 
1.9034323e-01 4.2346162e-01 4.2378918e+01 
-1.4847966e-01 6.1155808e-01 4.2248856e+01 
4.7536272e-01 3.1546980e-01 4.2535065e+01 
-1.6817927e-01 8.4500539e-01 4.2181026e+01 
-2.6921678e-01 7.0492369e-01 4.2169544e+01 
-3.0656675e-01 9.2030340e-01 4.2147648e+01 
-3.9470181e-01 8.4769493e-01 4.2145920e+01 
7.7868804e-02 6.1763972e-01 4.2175373e+01 
-4.3632248e-01 9.6403021e-01 4.2076988e+01 
1.4390758e-02 5.1145434e-01 4.2165581e+01 
-4.5421973e-02 7.5016522e-01 4.2092751e+01 
-1.4420210e-01 6.0695171e-01 4.2081959e+01 
-3.0502778e-01 9.2049998e-01 4.2006248e+01 
-4.0175444e-01 8.5747409e-01 4.2004128e+01 
-1.6451253e-01 8.4477836e-01 4.2012604e+01 
4.8935395e-01 3.0558801e-01 4.2292507e+01 
-2.6746723e-01 7.0216429e-01 4.2000870e+01 
6.4714879e-02 6.3520777e-01 4.2024277e+01 
-4.3632188e-01 9.6402657e-01 4.1934975e+01 
-5.4755262e-03 5.2092212e-01 4.2014156e+01 
-2.3078828e-01 8.1064087e-01 4.1931458e+01 
2.3550548e-01 4.7116494e-01 4.2073269e+01 
2.0610523e-01 4.1123796e-01 4.2066772e+01 
-3.9517213e-02 7.4775779e-01 4.1922287e+01 
-1.3978374e-01 6.0220873e-01 4.1911320e+01 
-3.0346894e-01 9.2068475e-01 4.1863613e+01 
-3.9432141e-01 8.4618556e-01 4.1861881e+01 
-1.6077711e-01 8.4452641e-01 4.1840263e+01 
-2.6568118e-01 6.9934219e-01 4.1828377e+01 
-4.3632129e-01 9.6402299e-01 4.1791718e+01 
5.0338638e-01 2.9562023e-01 4.2048656e+01 
9.4028555e-02 6.0672593e-01 4.1834507e+01 
3.0205652e-02 4.9819478e-01 4.1824417e+01 
-3.8116732e-01 8.2744831e-01 4.1725647e+01 
-3.0189002e-01 9.2085695e-01 4.1719719e+01 
-3.3455357e-02 7.4522001e-01 4.1747829e+01 
-1.3521814e-01 5.9732240e-01 4.1736786e+01 
-4.3632072e-01 9.6401960e-01 4.1647179e+01 
-1.5697217e-01 8.4424627e-01 4.1663853e+01 
-2.6385748e-01 6.9645494e-01 4.1651920e+01 
8.0488607e-02 6.2478805e-01 4.1676235e+01 
2.6870471e-01 4.4547972e-01 4.1752304e+01 
9.6269641e-03 5.0785345e-01 4.1665993e+01 
2.4764967e-01 3.8646612e-01 4.1743168e+01 
-3.0029076e-01 9.2101562e-01 4.1574532e+01 
-3.9388368e-01 8.4456980e-01 4.1572796e+01 
5.1745731e-01 2.8556010e-01 4.1803486e+01 
-2.7231261e-02 7.4254233e-01 4.1569210e+01 
-1.3049847e-01 5.9228569e-01 4.1558201e+01 
-4.3632016e-01 9.6401632e-01 4.1501339e+01 
-1.5309690e-01 8.4393430e-01 4.1483204e+01 
-2.6199502e-01 6.9349992e-01 4.1471333e+01 
-2.9867104e-01 9.2115986e-01 4.1428024e+01 
-3.9364263e-01 8.4372103e-01 4.1426289e+01 
1.1125199e-01 5.9476525e-01 4.1477348e+01 
4.7217656e-02 4.8404291e-01 4.1467384e+01 
-4.3631962e-01 9.6401310e-01 4.1354160e+01 
-2.0839609e-02 7.3971421e-01 4.1386261e+01 
-1.2561750e-01 5.8709091e-01 4.1375404e+01 
5.3156406e-01 2.7540097e-01 4.1556946e+01 
-1.4915068e-01 8.4358656e-01 4.1298138e+01 
-2.9703063e-01 9.2128879e-01 4.1280167e+01 
-3.9338648e-01 8.4284443e-01 4.1278431e+01 
-2.6009262e-01 6.9047421e-01 4.1286449e+01 
2.9365057e-01 4.2687622e-01 4.1391586e+01 
9.7278498e-02 6.1333776e-01 4.1311302e+01 
2.7470219e-01 3.6807936e-01 4.1382729e+01 
2.5872495e-02 4.9389899e-01 4.1301384e+01 
-4.3631911e-01 9.6401012e-01 4.1205620e+01 
-1.4274905e-02 7.3672432e-01 4.1198803e+01 
-1.2056758e-01 5.8173001e-01 4.1188221e+01 
-2.9536936e-01 9.2140132e-01 4.1130928e+01 
[...]
POINT_DATA 4496
FIELD FieldData 5
DISPLACEMENT 3 4496  float
3.6155306e-02 3.4708530e-02 -2.7237777e-04 
3.5995845e-02 3.4534786e-02 -2.7215006e-04 
3.6179706e-02 3.4763236e-02 -3.4742669e-04 
3.6214296e-02 3.4732930e-02 -1.6609026e-04 
3.5965528e-02 3.4464609e-02 -1.7301242e-04 
3.5938401e-02 3.4500115e-02 -3.4656530e-04 
3.5835285e-02 3.4359846e-02 -2.7191904e-04 
3.6211159e-02 3.4815013e-02 -3.9417567e-04 
3.6263146e-02 3.4778234e-02 -1.4504112e-04 
3.6050290e-02 3.4641039e-02 -3.9742939e-04 
3.6101691e-02 3.4601878e-02 -1.4362362e-04 
3.5804577e-02 3.4289055e-02 -1.7224494e-04 
3.5777129e-02 3.4325156e-02 -3.4838880e-04 
3.5886433e-02 3.4463815e-02 -4.0073853e-04 
3.6244072e-02 3.4859437e-02 -4.1704992e-04 
3.5937324e-02 3.4422353e-02 -1.4218780e-04 
3.5673600e-02 3.4183685e-02 -2.7168405e-04 
3.6298171e-02 3.4822620e-02 -1.6170238e-04 
3.5832603e-02 3.4332763e-02 -2.0744678e-04 
3.6055364e-02 3.4656130e-02 -4.2294239e-04 
3.6107272e-02 3.4617960e-02 -1.7031786e-04 
3.5614733e-02 3.4148972e-02 -3.5020258e-04 
3.5642497e-02 3.4112275e-02 -1.7146728e-04 
3.5719495e-02 3.4283254e-02 -4.0410529e-04 
3.5769939e-02 3.4239542e-02 -1.4072392e-04 
3.6286395e-02 3.4903798e-02 -4.1241429e-04 
3.5834622e-02 3.4416795e-02 -4.2587041e-04 
3.5510805e-02 3.4006286e-02 -2.7143877e-04 
3.6331356e-02 3.4875218e-02 -2.0560685e-04 
3.5887420e-02 3.4374543e-02 -1.5960752e-04 
3.5549384e-02 3.4099240e-02 -4.0752377e-04 
3.5451192e-02 3.3971533e-02 -3.5203970e-04 
3.5479281e-02 3.3934265e-02 -1.7068142e-04 
3.5965908e-02 3.4555331e-02 -4.1400225e-04 
3.5599437e-02 3.4053348e-02 -1.3923879e-04 
3.5666604e-02 3.4235056e-02 -4.2927402e-04 
3.6007550e-02 3.4525286e-02 -2.1278704e-04 
3.6130875e-02 3.4731898e-02 -4.0567125e-04 
3.5718992e-02 3.4190744e-02 -1.5851406e-04 
3.6166225e-02 3.4708694e-02 -2.4109677e-04 
3.5346828e-02 3.3827662e-02 -2.7119444e-04 
3.6334593e-02 3.4953423e-02 -4.0470934e-04 
3.5803780e-02 3.4380972e-02 -4.1998379e-04 
3.5852365e-02 3.4352712e-02 -2.0321463e-04 
3.6365144e-02 3.4935981e-02 -2.6951751e-04 
3.5375968e-02 3.3911645e-02 -4.1099550e-04 
3.5495363e-02 3.4049813e-02 -4.3272294e-04 
3.5286482e-02 3.3792835e-02 -3.5387231e-04 
3.5314895e-02 3.3754978e-02 -1.6984777e-04 
3.5425738e-02 3.3863664e-02 -1.3772812e-04 
3.5547424e-02 3.4003522e-02 -1.5741031e-04 
3.6188070e-02 3.4797747e-02 -4.1512292e-04 
3.5631631e-02 3.4192994e-02 -4.1876908e-04 
3.6208965e-02 3.4784522e-02 -3.1916218e-04 
3.5181694e-02 3.3647720e-02 -2.7093472e-04 
3.5671875e-02 3.4159757e-02 -2.1278791e-04 
3.5919752e-02 3.4505200e-02 -4.1439262e-04 
3.5944097e-02 3.4488212e-02 -2.9822203e-04 
3.6386054e-02 3.5016283e-02 -4.2280921e-04 
3.6401518e-02 3.5008848e-02 -3.5808742e-04 
3.5320792e-02 3.3860948e-02 -4.3622573e-04 
3.5468668e-02 3.4017760e-02 -4.2486496e-04 
3.5199158e-02 3.3720378e-02 -4.1452463e-04 
3.5120562e-02 3.3612829e-02 -3.5572966e-04 
3.5149317e-02 3.3574410e-02 -1.6901641e-04 
3.5372596e-02 3.3812772e-02 -1.5631354e-04 
3.5510868e-02 3.3980738e-02 -2.0286528e-04 
3.5248697e-02 3.3670358e-02 -1.3619775e-04 
3.5015333e-02 3.3466496e-02 -2.7068198e-04 
3.5610303e-02 3.4169637e-02 -4.1853322e-04 
3.5632785e-02 3.4151021e-02 -3.0317201e-04 
3.5142779e-02 3.3668354e-02 -4.3975466e-04 
3.5194390e-02 3.3618357e-02 -1.5520061e-04 
3.4953449e-02 3.3431530e-02 -3.5757516e-04 
3.4982543e-02 3.3392534e-02 -1.6817261e-04 
3.5284359e-02 3.3816501e-02 -4.2359447e-04 
3.5018831e-02 3.3525281e-02 -4.1809614e-04 
3.5323441e-02 3.3780422e-02 -2.1295504e-04 
3.5068221e-02 3.3473324e-02 -1.3463759e-04 
3.6432587e-02 3.5097610e-02 -5.0443434e-04 
3.4847748e-02 3.3283927e-02 -2.7042834e-04 
3.6138523e-02 3.4778696e-02 -5.0828973e-04 
3.5114974e-02 3.3634357e-02 -4.2994617e-04 
3.5156220e-02 3.3594526e-02 -2.0263896e-04 
3.4961212e-02 3.3471886e-02 -4.4333452e-04 
3.4810949e-02 3.3207674e-02 -1.7330417e-04 
3.4785043e-02 3.3248842e-02 -3.5944951e-04 
3.5012722e-02 3.3420186e-02 -1.5409227e-04 
3.4834873e-02 3.3326264e-02 -4.2172062e-04 
3.4884226e-02 3.3272456e-02 -1.3303092e-04 
3.5843089e-02 3.4458280e-02 -5.1215227e-04 
3.5261936e-02 3.3791769e-02 -4.2289705e-04 
3.4678888e-02 3.3100039e-02 -2.7016897e-04 
3.5259549e-02 3.3746392e-02 -3.0807260e-04 
3.4923188e-02 3.3424862e-02 -4.2847003e-04 
3.4775961e-02 3.3271428e-02 -4.4694042e-04 
3.4615446e-02 3.3064835e-02 -3.6129361e-04 
3.4645196e-02 3.3024702e-02 -1.6639668e-04 
3.4961354e-02 3.3386342e-02 -2.1330519e-04 
3.4827422e-02 3.3218093e-02 -1.5296778e-04 
3.4647148e-02 3.3123147e-02 -4.2538243e-04 
3.5546254e-02 3.4136221e-02 -5.1602087e-04 
3.4696508e-02 3.3067584e-02 -1.3141667e-04 
3.4508821e-02 3.2914728e-02 -2.6987970e-04 
3.4746934e-02 3.3235330e-02 -4.3506629e-04 
3.4787487e-02 3.3193115e-02 -2.0256969e-04 
3.4444530e-02 3.2879420e-02 -3.6318330e-04 
3.4474637e-02 3.2838747e-02 -1.6550101e-04 
3.4586895e-02 3.3066824e-02 -4.5059185e-04 
3.4638420e-02 3.3011999e-02 -1.5185963e-04 
3.4891132e-02 3.3389483e-02 -4.2741315e-04 
3.4455508e-02 3.2915797e-02 -4.2908840e-04 
3.4908425e-02 3.3365041e-02 -3.1083199e-04 
3.4505028e-02 3.2858640e-02 -1.2978789e-04 
3.5248000e-02 3.3812631e-02 -5.1994418e-04 
3.4337390e-02 3.2728110e-02 -2.6959015e-04 
3.4323901e-02 3.2671645e-02 -1.5703852e-04 
3.4272324e-02 3.2692652e-02 -3.6501870e-04 
3.4547128e-02 3.3017050e-02 -4.3337702e-04 
3.4584653e-02 3.2976542e-02 -2.1388718e-04 
3.4393854e-02 3.2857962e-02 -4.5426955e-04 
3.4445524e-02 3.2801725e-02 -1.5072603e-04 
3.4259874e-02 3.2704152e-02 -4.3283231e-04 
3.4164682e-02 3.2540057e-02 -2.6927731e-04 
3.4309585e-02 3.2645367e-02 -1.2811455e-04 
3.4948248e-02 3.3487380e-02 -5.2381714e-04 
3.4363519e-02 3.2819629e-02 -4.4020402e-04 
3.4146588e-02 3.2477334e-02 -1.5317913e-04 
3.4098797e-02 3.2504424e-02 -3.6683006e-04 
3.4403671e-02 3.2775491e-02 -2.0268813e-04 
3.4522146e-02 3.2989286e-02 -4.3210533e-04 
3.4196783e-02 3.2644682e-02 -4.5799464e-04 
3.4539957e-02 3.2966532e-02 -3.1800303e-04 
3.4248665e-02 3.2587159e-02 -1.4966661e-04 
3.3990659e-02 3.2350544e-02 -2.6892158e-04 
3.4060027e-02 3.2487992e-02 -4.3664488e-04 
3.4110054e-02 3.2427773e-02 -1.2642446e-04 
3.3923864e-02 3.2314766e-02 -3.6870208e-04 
3.3960771e-02 3.2274771e-02 -1.5172143e-04 
3.4647088e-02 3.3160672e-02 -5.2766956e-04 
3.4155123e-02 3.2591958e-02 -4.3827004e-04 
3.4192309e-02 3.2549951e-02 -2.1470479e-04 
3.3995457e-02 3.2426856e-02 -4.6167881e-04 
3.3815220e-02 3.2159645e-02 -2.6859509e-04 
3.4047641e-02 3.2368146e-02 -1.4855924e-04 
3.3855874e-02 3.2267176e-02 -4.4045600e-04 
3.3906307e-02 3.2205652e-02 -1.2470016e-04 
3.3747602e-02 3.2123674e-02 -3.7054301e-04 
3.3773012e-02 3.2071311e-02 -1.5343071e-04 
3.3963650e-02 3.2386072e-02 -4.4530752e-04 
3.4003761e-02 3.2340568e-02 -2.0298969e-04 
3.3638421e-02 3.1967305e-02 -2.6824814e-04 
3.4075879e-02 3.2505061e-02 -4.3682972e-04 
3.3789765e-02 3.2204326e-02 -4.6538413e-04 
3.4095321e-02 3.2482583e-02 -3.1807978e-04 
3.3842348e-02 3.2144587e-02 -1.4746071e-04 
3.4344424e-02 3.2832291e-02 -5.3147716e-04 
3.3647239e-02 3.2041550e-02 -4.4430530e-04 
3.3698168e-02 3.1978831e-02 -1.2294707e-04 
3.3569984e-02 3.1931162e-02 -3.7235545e-04 
3.3601791e-02 3.1887855e-02 -1.6057504e-04 
3.3746060e-02 3.2148458e-02 -4.4313251e-04 
3.3460204e-02 3.1773437e-02 -2.6790850e-04 
3.3783253e-02 3.2105509e-02 -2.1585668e-04 
3.3579540e-02 3.1976927e-02 -4.6910948e-04 
3.3632681e-02 3.1916287e-02 -1.4633451e-04 
3.3390798e-02 3.1737015e-02 -3.7424508e-04 
3.3417549e-02 3.1689294e-02 -1.6486541e-04 
3.3433959e-02 3.1810950e-02 -4.4818863e-04 
3.4040239e-02 3.2502282e-02 -5.3527963e-04 
3.3485591e-02 3.1747241e-02 -1.2111541e-04 
3.3546183e-02 3.1933606e-02 -4.5034316e-04 
3.3280395e-02 3.1578001e-02 -2.6757832e-04 
3.3586591e-02 3.1887263e-02 -2.0357118e-04 
3.3347148e-02 3.1668499e-02 -3.1689552e-04 
3.3684526e-02 3.2080650e-02 -4.4109480e-04 
3.3704191e-02 3.2058112e-02 -3.2089686e-04 
3.3364631e-02 3.1744532e-02 -4.7285968e-04 
3.3418406e-02 3.1683121e-02 -1.4520496e-04 
3.3210117e-02 3.1541288e-02 -3.7608860e-04 
3.3242587e-02 3.1496931e-02 -1.5849073e-04 
3.3215851e-02 3.1575274e-02 -4.5210970e-04 
3.3268336e-02 3.1510551e-02 -1.1925878e-04 
3.3099156e-02 3.1380966e-02 -2.6718708e-04 
3.3734608e-02 3.2170855e-02 -5.3907279e-04 
3.3318684e-02 3.1685289e-02 -4.4793761e-04 
3.3356257e-02 3.1641990e-02 -2.1732273e-04 
3.3078898e-02 3.1315703e-02 -1.4904310e-04 
3.3028066e-02 3.1344101e-02 -3.7786766e-04 
3.3144794e-02 3.1506836e-02 -4.7661614e-04 
3.3199329e-02 3.1444810e-02 -1.4406268e-04 
3.2916479e-02 3.1182354e-02 -2.6674458e-04 
3.2992750e-02 3.1334162e-02 -4.5605842e-04 
3.3046085e-02 3.1268638e-02 -1.1740415e-04 
3.3109721e-02 3.1460792e-02 -4.5527270e-04 
3.3288848e-02 3.1652514e-02 -4.4735358e-04 
3.3150785e-02 3.1414192e-02 -2.0443299e-04 
3.3304539e-02 3.1630263e-02 -3.3918588e-04 
3.2844409e-02 3.1145278e-02 -3.7971543e-04 
3.2877631e-02 3.1099914e-02 -1.5621672e-04 
3.3427615e-02 3.1838186e-02 -5.4281467e-04 
3.2919891e-02 3.1263702e-02 -4.8037618e-04 
3.2975327e-02 3.1201279e-02 -1.4298859e-04 
3.2732233e-02 3.0982248e-02 -2.6632517e-04 
3.2764424e-02 3.1087516e-02 -4.5997370e-04 
3.2818794e-02 3.1021399e-02 -1.1553713e-04 
3.2659274e-02 3.0944880e-02 -3.8148684e-04 
3.2692801e-02 3.0899070e-02 -1.5513624e-04 
3.2871526e-02 3.1200929e-02 -4.5261392e-04 
3.2909907e-02 3.1158004e-02 -2.1908645e-04 
3.2546367e-02 3.0780606e-02 -2.6591969e-04 
3.2689717e-02 3.1014981e-02 -4.8407353e-04 
3.2746166e-02 3.0952282e-02 -1.4184798e-04 
3.3119034e-02 3.1503763e-02 -5.4642919e-04 
3.2530710e-02 3.0835187e-02 -4.6387818e-04 
3.2472514e-02 3.0742932e-02 -3.8323860e-04 
3.2506354e-02 3.0696560e-02 -1.5392374e-04 
3.2586299e-02 3.0768568e-02 -1.1353112e-04 
3.2839749e-02 3.1166406e-02 -4.5290709e-04 
3.2652803e-02 3.0966004e-02 -4.6009349e-04 
3.2855503e-02 3.1145634e-02 -3.4789776e-04 
3.2695048e-02 3.0919958e-02 -2.0551034e-04 
3.2358989e-02 3.0577131e-02 -2.6548130e-04 
3.2454107e-02 3.0760454e-02 -4.8779935e-04 
3.2511614e-02 3.0697621e-02 -1.4072029e-04 
3.2284148e-02 3.0539151e-02 -3.8505136e-04 
3.2318376e-02 3.0492352e-02 -1.5276641e-04 
3.2291420e-02 3.0576836e-02 -4.6789277e-04 
3.2348290e-02 3.0510012e-02 -1.1154066e-04 
3.2808863e-02 3.1167841e-02 -5.5005483e-04 
3.2169878e-02 3.0372120e-02 -2.6503659e-04 
3.2403056e-02 3.0693796e-02 -4.5714216e-04 
3.2442633e-02 3.0651884e-02 -2.2130749e-04 
3.2094099e-02 3.0333756e-02 -3.8684896e-04 
3.2128662e-02 3.0286472e-02 -1.5151477e-04 
3.2212730e-02 3.0499749e-02 -4.9147278e-04 
3.2271575e-02 3.0437145e-02 -1.3961045e-04 
3.1979188e-02 3.0165263e-02 -2.6455408e-04 
3.2046281e-02 3.0312339e-02 -4.7176029e-04 
3.2104548e-02 3.0245386e-02 -1.0946846e-04 
3.2369085e-02 3.0657424e-02 -4.5879907e-04 
3.2385394e-02 3.0638821e-02 -3.5750179e-04 
3.2160260e-02 3.0431086e-02 -4.5925094e-04 
3.2497209e-02 3.0830573e-02 -5.5360806e-04 
3.1902459e-02 3.0126607e-02 -3.8854618e-04 
3.1937335e-02 3.0078935e-02 -1.5036446e-04 
3.2200597e-02 3.0390143e-02 -2.2249823e-04 
3.1965509e-02 3.0232897e-02 -4.9506204e-04 
3.2025684e-02 3.0170532e-02 -1.3852151e-04 
3.1786703e-02 2.9956885e-02 -2.6407445e-04 
3.1794965e-02 3.0041365e-02 -4.7570327e-04 
3.1855047e-02 2.9974613e-02 -1.0738763e-04 
3.1709060e-02 2.9917914e-02 -3.9020786e-04 
3.1744219e-02 2.9869664e-02 -1.4905345e-04 
3.1911496e-02 3.0162062e-02 -4.6135273e-04 
3.1757679e-02 2.9911401e-02 -2.2527183e-04 
3.1952765e-02 3.0122276e-02 -2.2392631e-04 
3.1592555e-02 2.9746577e-02 -2.6353230e-04 
3.2183785e-02 3.0491291e-02 -5.5703148e-04 
3.1976592e-02 3.0232182e-02 -4.6055808e-04 
3.1712111e-02 2.9959505e-02 -4.9851631e-04 
3.1997062e-02 3.0213647e-02 -3.4598898e-04 
3.1773869e-02 2.9897811e-02 -1.3740176e-04 
3.1513855e-02 2.9707205e-02 -3.9180939e-04 
3.1549349e-02 2.9658578e-02 -1.4777511e-04 
3.1537637e-02 2.9763967e-02 -4.7943799e-04 
3.1599291e-02 2.9697528e-02 -1.0537143e-04 
3.1396613e-02 2.9534681e-02 -2.6303501e-04 
3.1656560e-02 2.9886529e-02 -4.6342431e-04 
3.1698860e-02 2.9848054e-02 -2.2538399e-04 
3.1452373e-02 2.9679455e-02 -5.0202262e-04 
3.1317025e-02 2.9494844e-02 -3.9345428e-04 
3.1352844e-02 2.9445807e-02 -1.4644912e-04 
3.1515758e-02 2.9618518e-02 -1.3622742e-04 
3.1868525e-02 3.0150706e-02 -5.6049391e-04 
3.1273529e-02 2.9479597e-02 -4.8334600e-04 
3.1198928e-02 2.9320927e-02 -2.6246862e-04 
3.1663012e-02 2.9867085e-02 -3.8861198e-04 
3.1645149e-02 2.9878562e-02 -4.7587353e-04 
3.1337198e-02 2.9413741e-02 -1.0309648e-04 
3.1395119e-02 2.9604228e-02 -4.6530078e-04 
3.1438548e-02 2.9567227e-02 -2.2705582e-04 
3.1118292e-02 2.9280633e-02 -3.9511331e-04 
3.1154409e-02 2.9231200e-02 -1.4509824e-04 
3.1185893e-02 2.9392326e-02 -5.0545775e-04 
3.1251222e-02 2.9332448e-02 -1.3509400e-04 
3.0999294e-02 2.9105289e-02 -2.6187309e-04 
3.1551730e-02 2.9808395e-02 -5.6369230e-04 
3.1002482e-02 2.9187961e-02 -4.8721695e-04 
3.1068424e-02 2.9122934e-02 -1.0077158e-04 
3.0917723e-02 2.9064687e-02 -3.9655183e-04 
3.0954110e-02 2.9014826e-02 -1.4380428e-04 
3.1345576e-02 2.9524479e-02 -3.9093441e-04 
3.1327877e-02 2.9536191e-02 -4.7884823e-04 
3.1122232e-02 2.9309891e-02 -4.6732224e-04 
3.1164583e-02 2.9271532e-02 -2.2732261e-04 
3.0915167e-02 2.9017543e-02 -2.7084007e-04 
3.0798169e-02 2.8888112e-02 -2.6125141e-04 
3.0913856e-02 2.9099595e-02 -5.0907274e-04 
3.0982416e-02 2.9041564e-02 -1.3237586e-04 
3.0716801e-02 2.8847735e-02 -3.9621233e-04 
3.0753119e-02 2.8798174e-02 -1.4336337e-04 
3.0729286e-02 2.8894132e-02 -4.9072981e-04 
3.1233357e-02 2.9464826e-02 -5.6676025e-04 
3.0800207e-02 2.8833248e-02 -9.8605276e-05 
3.0598415e-02 2.8672889e-02 -2.6070574e-04 
3.0841446e-02 2.9007832e-02 -4.7093310e-04 
3.0892102e-02 2.8975526e-02 -2.2143313e-04 
3.1027503e-02 2.9181762e-02 -3.9363708e-04 
3.1010006e-02 2.9193601e-02 -4.8179415e-04 
3.0647682e-02 2.8729083e-02 -2.7045090e-04 
3.0517433e-02 2.8632715e-02 -3.9575333e-04 
3.0641697e-02 2.8807083e-02 -5.1292591e-04 
3.0553564e-02 2.8583191e-02 -1.4280695e-04 
3.0715516e-02 2.8752826e-02 -1.2886450e-04 
3.0400217e-02 2.8459119e-02 -2.6003117e-04 
3.0460913e-02 2.8605763e-02 -4.9409299e-04 
3.0536195e-02 2.8548526e-02 -9.6450371e-05 
3.0914672e-02 2.9121192e-02 -5.6976563e-04 
3.0570198e-02 2.8716741e-02 -4.7516607e-04 
3.0626684e-02 2.8687401e-02 -2.1526525e-04 
3.0319246e-02 2.8419115e-02 -3.9542789e-04 
3.0355334e-02 2.8369881e-02 -1.4228234e-04 
3.0665152e-02 2.8817633e-02 -4.7131709e-04 
3.0691667e-02 2.8804859e-02 -3.5173213e-04 
3.0374292e-02 2.8519958e-02 -5.1662064e-04 
3.0452726e-02 2.8468765e-02 -1.2538928e-04 
3.0317595e-02 2.8373430e-02 -2.6943334e-04 
3.0203247e-02 2.8247120e-02 -2.5943422e-04 
3.0276259e-02 2.8268339e-02 -9.4212970e-05 
3.0196927e-02 2.8322339e-02 -4.9724762e-04 
3.0122561e-02 2.8207203e-02 -3.9495312e-04 
3.0158449e-02 2.8158257e-02 -1.4174054e-04 
3.0365303e-02 2.8403958e-02 -2.0923166e-04 
3.0303592e-02 2.8430834e-02 -4.7940150e-04 
3.0596273e-02 2.8778423e-02 -5.7265797e-04 
3.0007442e-02 2.8036656e-02 -2.5885750e-04 
3.0193856e-02 2.8189367e-02 -1.2197445e-04 
3.0111285e-02 2.8237941e-02 -5.2013481e-04 
3.0374659e-02 2.8510205e-02 -4.8774638e-04 
3.0354844e-02 2.8444981e-02 -3.6015225e-04 
2.9927000e-02 2.7996818e-02 -3.9437332e-04 
2.9957138e-02 2.7942784e-02 -1.4378170e-04 
3.0020306e-02 2.7992558e-02 -9.1832648e-05 
2.9937316e-02 2.8044162e-02 -5.0035171e-04 
2.9895125e-02 2.7922511e-02 -2.7847427e-04 
2.9812984e-02 2.7827460e-02 -2.5814693e-04 
3.0107643e-02 2.8125079e-02 -2.0354599e-04 
3.0032301e-02 2.8135866e-02 -4.7145408e-04 
2.9938720e-02 2.7914505e-02 -1.1881298e-04 
2.9852653e-02 2.7960695e-02 -5.2344962e-04 
2.9732721e-02 2.7787801e-02 -3.9370573e-04 
3.0278437e-02 2.8436823e-02 -5.7551701e-04 
2.9768337e-02 2.7739206e-02 -1.4054278e-04 
2.9778060e-02 2.7790489e-02 -2.5994881e-04 
3.0063873e-02 2.8132210e-02 -3.6094413e-04 
2.9619746e-02 2.7619973e-02 -2.5750196e-04 
2.9767709e-02 2.7721288e-02 -8.9843299e-05 
2.9681860e-02 2.7770387e-02 -5.0307257e-04 
3.0057339e-02 2.8169477e-02 -4.9033744e-04 
2.9853825e-02 2.7850719e-02 -1.9779736e-04 
2.9783525e-02 2.7873827e-02 -4.8730770e-04 
2.9539693e-02 2.7580434e-02 -3.9314601e-04 
2.9575240e-02 2.7532067e-02 -1.3998544e-04 
2.9687386e-02 2.7643966e-02 -1.1551260e-04 
2.9598193e-02 2.7688148e-02 -5.2645762e-04 
2.9521981e-02 2.7506417e-02 -2.3206473e-04 
2.9427676e-02 2.7413949e-02 -2.5687565e-04 
2.9960778e-02 2.8095836e-02 -5.7831989e-04 
2.9518960e-02 2.7454056e-02 -8.7555083e-05 
2.9430391e-02 2.7501337e-02 -5.0566846e-04 
2.9765006e-02 2.7799793e-02 -3.2830398e-04 
2.9715795e-02 2.7795412e-02 -4.7079058e-04 
2.9347846e-02 2.7374480e-02 -3.9244295e-04 
2.9603716e-02 2.7580589e-02 -1.9229647e-04 
2.9374819e-02 2.7312491e-02 -1.2506395e-04 
2.9529864e-02 2.7602656e-02 -4.9116602e-04 
2.9236663e-02 2.7209273e-02 -2.5623478e-04 
2.9439569e-02 2.7377477e-02 -1.1227184e-04 
2.9347666e-02 2.7420307e-02 -5.2926532e-04 
2.9192356e-02 2.7122052e-02 -1.3883822e-04 
2.9151686e-02 2.7159821e-02 -3.7878149e-04 
2.9273709e-02 2.7190929e-02 -8.5395703e-05 
2.9182799e-02 2.7236663e-02 -5.0811196e-04 
2.9643357e-02 2.7755309e-02 -5.8062578e-04 
2.9148513e-02 2.7130956e-02 -3.0392446e-04 
2.9357141e-02 2.7314749e-02 -1.8697433e-04 
2.9279966e-02 2.7335834e-02 -4.9487426e-04 
2.9046841e-02 2.7006226e-02 -2.5563891e-04 
2.9195085e-02 2.7115256e-02 -1.0926190e-04 
2.9423563e-02 2.7489912e-02 -4.9520738e-04 
2.9440012e-02 2.7477771e-02 -4.0682009e-04 
2.9040083e-02 2.6954131e-02 -1.2320178e-04 
2.9100919e-02 2.7156625e-02 -5.3184154e-04 
2.8988017e-02 2.6994254e-02 -4.0759717e-04 
2.9329503e-02 2.7315095e-02 -2.7590978e-04 
2.9262964e-02 2.7309194e-02 -4.7045076e-04 
2.9031573e-02 2.6931815e-02 -8.3381150e-05 
2.8939262e-02 2.6976267e-02 -5.1006634e-04 
2.8858325e-02 2.6804570e-02 -2.5489641e-04 
2.9113911e-02 2.7052881e-02 -1.8169628e-04 
2.9034130e-02 2.7073624e-02 -4.9831020e-04 
2.9325621e-02 2.7414562e-02 -5.8288471e-04 
2.8835714e-02 2.6733963e-02 -1.1672721e-04 
2.8780418e-02 2.6773036e-02 -4.0957815e-04 
2.8954072e-02 2.6856711e-02 -1.0622039e-04 
2.8858118e-02 2.6897425e-02 -5.3436757e-04 
2.8670920e-02 2.6604140e-02 -2.5418916e-04 
2.9106693e-02 2.7150853e-02 -4.9726130e-04 
2.9122856e-02 2.7138732e-02 -4.0898623e-04 
2.8792886e-02 2.6676299e-02 -8.1140810e-05 
2.8699262e-02 2.6720313e-02 -5.1206810e-04 
2.8873872e-02 2.6794806e-02 -1.7665293e-04 
2.8578624e-02 2.6556190e-02 -4.0561068e-04 
2.8758800e-02 2.6782580e-02 -5.0886074e-04 
2.8894877e-02 2.6848421e-02 -2.6987999e-04 
2.8597448e-02 2.6479434e-02 -1.1552900e-04 
2.8716115e-02 2.6602037e-02 -1.0330908e-04 
2.8618999e-02 2.6642241e-02 -5.3661241e-04 
2.8484384e-02 2.6405128e-02 -2.5346634e-04 
2.9008416e-02 2.7074877e-02 -5.8482157e-04 
2.8488593e-02 2.6423326e-02 -2.9551121e-04 
2.8557304e-02 2.6424745e-02 -7.8946854e-05 
2.8729597e-02 2.6738806e-02 -4.7183211e-04 
2.8407117e-02 2.6364047e-02 -3.7786260e-04 
2.8462673e-02 2.6467970e-02 -5.1391439e-04 
2.8440407e-02 2.6319297e-02 -1.3642956e-04 
2.8637066e-02 2.6540596e-02 -1.7166331e-04 
2.8790226e-02 2.6812721e-02 -4.9894844e-04 
2.8806180e-02 2.6800610e-02 -4.1072461e-04 
2.8553315e-02 2.6561337e-02 -5.0478947e-04 
2.8392116e-02 2.6256548e-02 -1.0200426e-04 
2.8298991e-02 2.6207507e-02 -2.5278298e-04 
2.8481402e-02 2.6351126e-02 -1.0025928e-04 
2.8383207e-02 2.6391050e-02 -5.3866784e-04 
2.8281806e-02 2.6151186e-02 -1.3839221e-04 
2.8220771e-02 2.6168313e-02 -3.8681488e-04 
2.8324749e-02 2.6176494e-02 -7.6840966e-05 
2.8229490e-02 2.6219863e-02 -5.1541656e-04 
2.8691368e-02 2.6736164e-02 -5.8662880e-04 
2.8403185e-02 2.6289988e-02 -1.6681931e-04 
2.8114701e-02 2.6011107e-02 -2.5206187e-04 
2.8286159e-02 2.6279425e-02 -5.1449687e-04 
2.8144758e-02 2.5996065e-02 -1.0999739e-04 
2.8428795e-02 2.6353702e-02 -2.7781425e-04 
2.8249534e-02 2.6103601e-02 -9.7384072e-05 
2.8174819e-02 2.6073005e-02 -2.4656145e-04 
2.8052805e-02 2.5997410e-02 -4.1133040e-04 
2.8473997e-02 2.6475346e-02 -5.0069345e-04 
2.8150853e-02 2.6143691e-02 -5.4058590e-04 
2.8489737e-02 2.6463266e-02 -4.1255497e-04 
2.8095033e-02 2.5931973e-02 -7.4897325e-05 
2.8257877e-02 2.6235517e-02 -4.7314167e-04 