# vtk DataFile Version 4.0
vtk output
ASCII
DATASET UNSTRUCTURED_GRID
POINTS 4496 float
-4.3633327e-01 9.6409470e-01 4.4200001e+01 
-4.3633258e-01 9.6409065e-01 4.4074627e+01 
-3.2152572e-01 9.1279918e-01 4.4200001e+01 
-3.8534868e-01 8.4052670e-01 4.4200001e+01 
-3.9589554e-01 8.5545403e-01 4.4010014e+01 
-3.2616228e-01 9.1667932e-01 4.4011734e+01 
-4.3633190e-01 9.6408653e-01 4.3948376e+01 
-2.1293370e-01 8.4677851e-01 4.4200001e+01 
-2.9042658e-01 7.3813015e-01 4.4200001e+01 
-2.1010752e-01 8.4669363e-01 4.4073502e+01 
-2.8908840e-01 7.3604190e-01 4.4072292e+01 
-3.9589015e-01 8.5505831e-01 4.3883316e+01 
-3.2487559e-01 9.1697580e-01 4.3885036e+01 
-2.0722924e-01 8.4660655e-01 4.3944645e+01 
-1.1981077e-01 7.7773046e-01 4.4200001e+01 
-2.8772619e-01 7.3391593e-01 4.3942276e+01 
-4.3633121e-01 9.6408242e-01 4.3821228e+01 
-1.9739023e-01 6.6468561e-01 4.4200001e+01 
-2.9444304e-01 7.8727525e-01 4.3879974e+01 
-8.7554991e-02 7.5255024e-01 4.4042213e+01 
-1.6445170e-01 6.4084798e-01 4.4041008e+01 
-3.2357255e-01 9.1726828e-01 4.3757431e+01 
-3.9587301e-01 8.5463828e-01 4.3755711e+01 
-2.0429766e-01 8.4651643e-01 4.3813354e+01 
-2.8633916e-01 7.3175091e-01 4.3809875e+01 
-2.6899619e-02 6.8901783e-01 4.4200001e+01 
-1.0567340e-01 7.7152997e-01 4.3875790e+01 
-4.3633053e-01 9.6407831e-01 4.3693161e+01 
-8.7133333e-02 5.9509218e-01 4.4200001e+01 
-1.8777622e-01 6.5475601e-01 4.3873402e+01 
-2.0131156e-01 8.4642249e-01 4.3679543e+01 
-3.2225290e-01 9.1755641e-01 4.3628902e+01 
-3.9584404e-01 8.5419410e-01 4.3627178e+01 
-1.0114321e-03 6.6670936e-01 4.3939713e+01 
-2.8492665e-01 7.2954547e-01 4.3675007e+01 
-1.0131179e-01 7.7015632e-01 4.3743176e+01 
-6.0682178e-02 5.7631296e-01 4.3938457e+01 
3.9444737e-02 6.2338209e-01 4.4053139e+01 
-1.8470748e-01 6.5131217e-01 4.3739727e+01 
-7.0938184e-03 5.4737431e-01 4.4052326e+01 
-4.3632981e-01 9.6407413e-01 4.3564159e+01 
7.6947339e-02 5.8804804e-01 4.4200001e+01 
-1.2721874e-02 6.8194175e-01 4.3817982e+01 
-7.7214435e-02 5.8474159e-01 4.3819649e+01 
4.0195532e-02 5.2425718e-01 4.4200001e+01 
-1.9826968e-01 8.4632379e-01 4.3543118e+01 
-9.6842363e-02 7.6872379e-01 4.3607994e+01 
-3.2091641e-01 9.1783977e-01 4.3499420e+01 
-3.9580306e-01 8.5372573e-01 4.3497700e+01 
-2.8348783e-01 7.2729832e-01 4.3537586e+01 
-1.8155001e-01 6.4778340e-01 4.3603539e+01 
1.5678726e-01 5.2239102e-01 4.4060219e+01 
1.0298219e-02 6.6009766e-01 4.3674484e+01 
1.3250886e-01 4.7546524e-01 4.4058990e+01 
-4.3632913e-01 9.6407002e-01 4.3434200e+01 
-5.0139543e-02 5.6696451e-01 4.3671154e+01 
1.3504514e-01 5.4209155e-01 4.3856747e+01 
1.0361936e-01 4.8715758e-01 4.3855240e+01 
2.0846681e-01 4.8028421e-01 4.4200001e+01 
1.9279444e-01 4.4799727e-01 4.4200001e+01 
-9.2261828e-02 7.6722860e-01 4.3470158e+01 
-1.4701239e-03 6.7547697e-01 4.3552124e+01 
-1.9517080e-01 8.4621930e-01 4.3403992e+01 
-3.1956279e-01 9.1811794e-01 4.3368977e+01 
-3.9574999e-01 8.5323322e-01 4.3367252e+01 
-1.7830023e-01 6.4416617e-01 4.3464752e+01 
-6.7131944e-02 5.7555372e-01 4.3547829e+01 
-2.8202194e-01 7.2500783e-01 4.3397518e+01 
-4.3632844e-01 9.6406585e-01 4.3303261e+01 
1.5138821e-01 5.3037512e-01 4.3609200e+01 
1.2119007e-01 4.7490793e-01 4.3606068e+01 
-8.7566733e-02 7.6566672e-01 4.3329563e+01 
-1.7495437e-01 6.4045686e-01 4.3323273e+01 
-3.1819177e-01 9.1839045e-01 4.3237537e+01 
-3.9568463e-01 8.5271639e-01 4.3235813e+01 
2.2269404e-02 6.5294570e-01 4.3398811e+01 
-1.9201367e-01 8.4610778e-01 4.3262066e+01 
-3.8899176e-02 5.5709696e-01 4.3393635e+01 
-2.8052819e-01 7.2267252e-01 4.3254715e+01 
3.7877345e-01 3.8273901e-01 4.4200001e+01 
-4.3632776e-01 9.6406174e-01 4.3171322e+01 
3.9241230e-01 3.7329337e-01 4.3965439e+01 
1.0283732e-02 6.6872352e-01 4.3271511e+01 
-5.6385640e-02 5.6585240e-01 4.3265472e+01 
-8.2753494e-02 7.6403379e-01 4.3186119e+01 
-4.0345609e-01 8.6371827e-01 4.3104889e+01 
-3.1680310e-01 9.1865683e-01 4.3105087e+01 
-1.7150842e-01 6.3665158e-01 4.3179005e+01 
-1.8879703e-01 8.4598809e-01 4.3117241e+01 
-2.7900568e-01 7.2029078e-01 4.3109074e+01 
4.0610775e-01 3.6380205e-01 4.3729839e+01 
1.6776134e-01 5.1882964e-01 4.3331150e+01 
-4.3632707e-01 9.6405768e-01 4.3038357e+01 
1.4031014e-01 4.6124566e-01 4.3307755e+01 
3.4952711e-02 6.4519531e-01 4.3111935e+01 
-7.7818394e-02 7.6232505e-01 4.3039719e+01 
-3.1539652e-01 9.1891652e-01 4.2971603e+01 
-3.9551663e-01 8.5160977e-01 4.2969879e+01 
-2.6899155e-02 5.4666573e-01 4.3105160e+01 
-1.6795819e-01 6.3274628e-01 4.3031849e+01 
-1.8551964e-01 8.4585863e-01 4.2969406e+01 
4.1985780e-01 3.5425979e-01 4.3493168e+01 
-2.7745360e-01 7.1786088e-01 4.2960495e+01 
-4.3632638e-01 9.6405357e-01 4.2904346e+01 
2.2723136e-02 6.6139150e-01 4.2979332e+01 
-4.4916678e-02 5.5559248e-01 4.2971806e+01 
-3.1397179e-01 9.1916907e-01 4.2837063e+01 
-3.9541367e-01 8.5101974e-01 4.2835335e+01 
-7.2757579e-02 7.6053542e-01 4.2890255e+01 
-1.6429928e-01 6.2873662e-01 4.2881699e+01 
1.8463810e-01 5.0694346e-01 4.3035332e+01 
-1.8218029e-01 8.4571803e-01 4.2818455e+01 
1.5503895e-01 4.5003417e-01 4.3027725e+01 
-2.7587104e-01 7.1538109e-01 4.2808868e+01 
4.3366045e-01 3.4466109e-01 4.3255390e+01 
-4.3632573e-01 9.6404958e-01 4.2769268e+01 
-3.8429454e-01 8.3484912e-01 4.2710606e+01 
-3.1252861e-01 9.1941386e-01 4.2701439e+01 
4.8404284e-02 6.3678014e-01 4.2813030e+01 
-1.4070326e-02 5.3562075e-01 4.2804932e+01 
-6.7567028e-02 7.5865942e-01 4.2737610e+01 
-1.6052702e-01 6.2461799e-01 4.2728443e+01 
-1.7877772e-01 8.4556442e-01 4.2664265e+01 
-4.3632504e-01 9.6404558e-01 4.2633099e+01 
-2.7425703e-01 7.1284944e-01 4.2654083e+01 
4.4751364e-01 3.3500037e-01 4.3016472e+01 
3.5901129e-02 6.5341437e-01 4.2674721e+01 
-3.7959340e-01 8.2794034e-01 4.2568317e+01 
-3.1106678e-01 9.1965032e-01 4.2564713e+01 
-3.2659348e-02 5.4472327e-01 4.2665997e+01 
2.0396979e-01 4.9291667e-01 4.2740131e+01 
-6.2242586e-02 7.5669110e-01 4.2581669e+01 
1.7765003e-01 4.3475360e-01 4.2732578e+01 
-1.5663649e-01 6.2038553e-01 4.2571964e+01 
-4.3632439e-01 9.6404165e-01 4.2495808e+01 
-1.7531081e-01 8.4539592e-01 4.2506718e+01 
-2.7261066e-01 7.1026409e-01 4.2496017e+01 
-3.0958602e-01 9.1987789e-01 4.2426853e+01 
-3.7859210e-01 8.2613736e-01 4.2421188e+01 
4.6141517e-01 3.2527190e-01 4.2776375e+01 
6.2686495e-02 6.2762415e-01 4.2501175e+01 
-3.3570320e-04 5.2390522e-01 4.2492062e+01 
-5.6779940e-02 7.5462401e-01 4.2422298e+01 
-4.3632373e-01 9.6403772e-01 4.2357380e+01 
-1.5262254e-01 6.1603409e-01 4.2412144e+01 
-1.7177837e-01 8.4521037e-01 4.2345684e+01 
-2.7093092e-01 7.0762289e-01 4.2334549e+01 
-3.0808610e-01 9.2009580e-01 4.2287842e+01 
-3.8275370e-01 8.3137155e-01 4.2275047e+01 
4.9876589e-02 6.4471585e-01 4.2356720e+01 
-1.9539909e-02 5.3318781e-01 4.2347118e+01 
-4.3632311e-01 9.6403396e-01 4.2217781e+01 
2.1959943e-01 4.8236796e-01 4.2385345e+01 
-5.1174615e-02 7.5245124e-01 4.2259373e+01 
1.9034323e-01 4.2346162e-01 4.2378918e+01 
-1.4847966e-01 6.1155808e-01 4.2248856e+01 
4.7536272e-01 3.1546980e-01 4.2535065e+01 
-1.6817927e-01 8.4500539e-01 4.2181026e+01 
-2.6921678e-01 7.0492369e-01 4.2169544e+01 
-3.0656675e-01 9.2030340e-01 4.2147648e+01 
-3.9470181e-01 8.4769493e-01 4.2145920e+01 
7.7868804e-02 6.1763972e-01 4.2175373e+01 
-4.3632248e-01 9.6403021e-01 4.2076988e+01 
1.4390758e-02 5.1145434e-01 4.2165581e+01 
-4.5421973e-02 7.5016522e-01 4.2092751e+01 
-1.4420210e-01 6.0695171e-01 4.2081959e+01 
-3.0502778e-01 9.2049998e-01 4.2006248e+01 
-4.0175444e-01 8.5747409e-01 4.2004128e+01 
-1.6451253e-01 8.4477836e-01 4.2012604e+01 
4.8935395e-01 3.0558801e-01 4.2292507e+01 
-2.6746723e-01 7.0216429e-01 4.2000870e+01 
6.4714879e-02 6.3520777e-01 4.2024277e+01 
-4.3632188e-01 9.6402657e-01 4.1934975e+01 
-5.4755262e-03 5.2092212e-01 4.2014156e+01 
-2.3078828e-01 8.1064087e-01 4.1931458e+01 
2.3550548e-01 4.7116494e-01 4.2073269e+01 
2.0610523e-01 4.1123796e-01 4.2066772e+01 
-3.9517213e-02 7.4775779e-01 4.1922287e+01 
-1.3978374e-01 6.0220873e-01 4.1911320e+01 
-3.0346894e-01 9.2068475e-01 4.1863613e+01 
-3.9432141e-01 8.4618556e-01 4.1861881e+01 
-1.6077711e-01 8.4452641e-01 4.1840263e+01 
-2.6568118e-01 6.9934219e-01 4.1828377e+01 
-4.3632129e-01 9.6402299e-01 4.1791718e+01 
5.0338638e-01 2.9562023e-01 4.2048656e+01 
9.4028555e-02 6.0672593e-01 4.1834507e+01 
3.0205652e-02 4.9819478e-01 4.1824417e+01 
-3.8116732e-01 8.2744831e-01 4.1725647e+01 
-3.0189002e-01 9.2085695e-01 4.1719719e+01 
-3.3455357e-02 7.4522001e-01 4.1747829e+01 
-1.3521814e-01 5.9732240e-01 4.1736786e+01 
-4.3632072e-01 9.6401960e-01 4.1647179e+01 
-1.5697217e-01 8.4424627e-01 4.1663853e+01 
-2.6385748e-01 6.9645494e-01 4.1651920e+01 
8.0488607e-02 6.2478805e-01 4.1676235e+01 
2.6870471e-01 4.4547972e-01 4.1752304e+01 
9.6269641e-03 5.0785345e-01 4.1665993e+01 
2.4764967e-01 3.8646612e-01 4.1743168e+01 
-3.0029076e-01 9.2101562e-01 4.1574532e+01 
-3.9388368e-01 8.4456980e-01 4.1572796e+01 
5.1745731e-01 2.8556010e-01 4.1803486e+01 
-2.7231261e-02 7.4254233e-01 4.1569210e+01 
-1.3049847e-01 5.9228569e-01 4.1558201e+01 
-4.3632016e-01 9.6401632e-01 4.1501339e+01 
-1.5309690e-01 8.4393430e-01 4.1483204e+01 
-2.6199502e-01 6.9349992e-01 4.1471333e+01 
-2.9867104e-01 9.2115986e-01 4.1428024e+01 
-3.9364263e-01 8.4372103e-01 4.1426289e+01 
1.1125199e-01 5.9476525e-01 4.1477348e+01 
4.7217656e-02 4.8404291e-01 4.1467384e+01 
-4.3631962e-01 9.6401310e-01 4.1354160e+01 
-2.0839609e-02 7.3971421e-01 4.1386261e+01 
-1.2561750e-01 5.8709091e-01 4.1375404e+01 
5.3156406e-01 2.7540097e-01 4.1556946e+01 
-1.4915068e-01 8.4358656e-01 4.1298138e+01 
-2.9703063e-01 9.2128879e-01 4.1280167e+01 
-3.9338648e-01 8.4284443e-01 4.1278431e+01 
-2.6009262e-01 6.9047421e-01 4.1286449e+01 
2.9365057e-01 4.2687622e-01 4.1391586e+01 
9.7278498e-02 6.1333776e-01 4.1311302e+01 
2.7470219e-01 3.6807936e-01 4.1382729e+01 
2.5872495e-02 4.9389899e-01 4.1301384e+01 
-4.3631911e-01 9.6401012e-01 4.1205620e+01 
-1.4274905e-02 7.3672432e-01 4.1198803e+01 
-1.2056758e-01 5.8173001e-01 4.1188221e+01 
-2.9536936e-01 9.2140132e-01 4.1130928e+01 
[...]
POINT_DATA 4496
FIELD FieldData 5
DISPLACEMENT 3 4496  float
2.6452696e-01 2.4189280e-01 -2.7401389e-03 
2.6306924e-01 2.4042106e-01 -2.7229823e-03 
2.6457101e-01 2.4199675e-01 -3.4747021e-03 
2.6464841e-01 2.4194595e-01 -1.8843198e-03 
2.6242507e-01 2.3970549e-01 -1.9107100e-03 
2.6237839e-01 2.3978239e-01 -3.4405387e-03 
2.6160136e-01 2.3893908e-01 -2.7057009e-03 
2.6463038e-01 2.4209633e-01 -3.9642546e-03 
2.6474550e-01 2.4203607e-01 -1.7881447e-03 
2.6315942e-01 2.4061385e-01 -3.9788797e-03 
2.6326263e-01 2.4053822e-01 -1.7617929e-03 
2.6095238e-01 2.3821829e-01 -1.8888352e-03 
2.6090494e-01 2.3829626e-01 -3.4416863e-03 
2.6166111e-01 2.3910372e-01 -3.9937482e-03 
2.6469386e-01 2.4218261e-01 -4.2382791e-03 
2.6175296e-01 2.3901334e-01 -1.7349888e-03 
2.6012307e-01 2.3744661e-01 -2.6882847e-03 
2.6481345e-01 2.4212258e-01 -2.0095704e-03 
2.6097512e-01 2.3827244e-01 -2.2741021e-03 
2.6288250e-01 2.4036030e-01 -4.2968332e-03 
2.6298663e-01 2.4028659e-01 -2.0916499e-03 
2.5942102e-01 2.3679955e-01 -3.4427890e-03 
2.5946921e-01 2.3672053e-01 -1.8667204e-03 
2.6013452e-01 2.3756509e-01 -4.0088515e-03 
2.6021564e-01 2.3746052e-01 -1.7076966e-03 
2.6477727e-01 2.4227011e-01 -4.2792088e-03 
2.6092952e-01 2.3838942e-01 -4.2858031e-03 
2.5863427e-01 2.3594348e-01 -2.6707102e-03 
2.6487640e-01 2.4222392e-01 -2.4765497e-03 
2.6102534e-01 2.3829769e-01 -1.9604573e-03 
2.5857872e-01 2.3599696e-01 -4.0241675e-03 
2.5792643e-01 2.3529206e-01 -3.4439063e-03 
2.5797537e-01 2.3521206e-01 -1.8443711e-03 
2.6177156e-01 2.3923858e-01 -4.2833369e-03 
2.5864965e-01 2.3587885e-01 -1.6799379e-03 
2.5938874e-01 2.3683655e-01 -4.3023024e-03 
2.6185241e-01 2.3917794e-01 -2.5284488e-03 
2.6313147e-01 2.4060860e-01 -4.2615281e-03 
2.5947428e-01 2.3673145e-01 -1.9375946e-03 
2.6320210e-01 2.4056363e-01 -2.8282492e-03 
2.5713465e-01 2.3442957e-01 -2.6530244e-03 
2.6487237e-01 2.4236810e-01 -4.3036374e-03 
2.6034153e-01 2.3779815e-01 -4.3090614e-03 
2.6046351e-01 2.3776814e-01 -2.4187053e-03 
2.6493946e-01 2.4234036e-01 -3.1276492e-03 
2.5699264e-01 2.3439838e-01 -4.0396787e-03 
2.5781825e-01 2.3525372e-01 -4.3189838e-03 
2.5642094e-01 2.3377369e-01 -3.4449901e-03 
2.5647065e-01 2.3369260e-01 -1.8217101e-03 
2.5705418e-01 2.3426738e-01 -1.6516690e-03 
2.5789419e-01 2.3513588e-01 -1.9144372e-03 
2.6330799e-01 2.4080147e-01 -4.4437279e-03 
2.5869355e-01 2.3613517e-01 -4.3011885e-03 
2.6334283e-01 2.4076904e-01 -3.6105241e-03 
2.5562409e-01 2.3290452e-01 -2.6351376e-03 
2.5875291e-01 2.3604980e-01 -2.5051029e-03 
2.6092350e-01 2.3839211e-01 -4.3939715e-03 
2.6096362e-01 2.3835078e-01 -3.3836041e-03 
2.6497257e-01 2.4249087e-01 -4.5704287e-03 
2.6500630e-01 2.4247940e-01 -4.0092459e-03 
2.5621700e-01 2.3363991e-01 -4.3358426e-03 
2.5725624e-01 2.3468751e-01 -4.3278160e-03 
2.5537530e-01 2.3276831e-01 -4.0553901e-03 
2.5490433e-01 2.3224412e-01 -3.4460644e-03 
2.5495487e-01 2.3216204e-01 -1.7988373e-03 
2.5628403e-01 2.3351008e-01 -1.8910618e-03 
2.5731146e-01 2.3458678e-01 -2.3913688e-03 
2.5542808e-01 2.3262511e-01 -1.6229216e-03 
2.5410229e-01 2.3136833e-01 -2.6171391e-03 
2.5805566e-01 2.3550071e-01 -4.4129430e-03 
2.5807723e-01 2.3544151e-01 -3.4104418e-03 
2.5458401e-01 2.3199412e-01 -4.3527992e-03 
2.5464275e-01 2.3185295e-01 -1.8673532e-03 
2.5337645e-01 2.3070328e-01 -3.4470716e-03 
2.5342777e-01 2.3062021e-01 -1.7756820e-03 
2.5549492e-01 2.3291014e-01 -4.3188659e-03 
2.5372562e-01 2.3110570e-01 -4.0712408e-03 
2.5553533e-01 2.3280279e-01 -2.4825293e-03 
2.5377038e-01 2.3095101e-01 -1.5936686e-03 
2.6505974e-01 2.4264689e-01 -5.4084691e-03 
2.5256905e-01 2.2982064e-01 -2.5990412e-03 
2.6234061e-01 2.3990510e-01 -5.4243687e-03 
2.5400013e-01 2.3140463e-01 -4.3468969e-03 
2.5403777e-01 2.3128295e-01 -2.3644499e-03 
2.5291815e-01 2.3031524e-01 -4.3698638e-03 
2.5189579e-01 2.2907700e-01 -1.7965217e-03 
2.5183693e-01 2.2915076e-01 -3.4481455e-03 
2.5296944e-01 2.3016353e-01 -1.8434437e-03 
2.5204253e-01 2.2940952e-01 -4.0872004e-03 
2.5208008e-01 2.2924410e-01 -1.5637962e-03 
2.5960925e-01 2.3715104e-01 -5.4402146e-03 
2.5483325e-01 2.3225166e-01 -4.4301059e-03 
2.5102419e-01 2.2826134e-01 -2.5808252e-03 
2.5462094e-01 2.3195721e-01 -3.4321968e-03 
2.5216728e-01 2.2955514e-01 -4.3361709e-03 
2.5121829e-01 2.2860219e-01 -4.3869694e-03 
2.5028589e-01 2.2758664e-01 -3.4490428e-03 
2.5033879e-01 2.2750151e-01 -1.7286835e-03 
2.5219151e-01 2.2942884e-01 -2.4608744e-03 
2.5126281e-01 2.2844070e-01 -1.8191651e-03 
2.5032485e-01 2.2767848e-01 -4.1032685e-03 
2.5686550e-01 2.3438419e-01 -5.4558832e-03 
2.5035590e-01 2.2750315e-01 -1.5335098e-03 
2.4946763e-01 2.2669016e-01 -2.5623089e-03 
2.5061098e-01 2.2798786e-01 -4.3654260e-03 
2.5063396e-01 2.2784841e-01 -2.3381079e-03 
2.4872284e-01 2.2601053e-01 -3.4499792e-03 
2.4877667e-01 2.2592455e-01 -1.7048968e-03 
2.4948326e-01 2.2685377e-01 -4.4040997e-03 
2.4952197e-01 2.2668342e-01 -1.7947578e-03 
2.5140524e-01 2.2879533e-01 -4.4466229e-03 
2.4857134e-01 2.2591142e-01 -4.1193711e-03 
2.5137579e-01 2.2868447e-01 -3.4341549e-03 
2.4859695e-01 2.2572733e-01 -1.5026862e-03 
2.5410920e-01 2.3160495e-01 -5.4714810e-03 
2.4789895e-01 2.2510722e-01 -2.5437542e-03 
2.4734360e-01 2.2447374e-01 -1.6279997e-03 
2.4714777e-01 2.2442259e-01 -3.4507271e-03 
2.4870165e-01 2.2606140e-01 -4.3528280e-03 
2.4871278e-01 2.2591954e-01 -2.4403974e-03 
2.4771178e-01 2.2506888e-01 -4.4212304e-03 
2.4774544e-01 2.2489050e-01 -1.7699153e-03 
2.4678101e-01 2.2410756e-01 -4.1355351e-03 
2.4631816e-01 2.2351205e-01 -2.5249554e-03 
2.4680167e-01 2.2391491e-01 -1.4711830e-03 
2.5134012e-01 2.2881286e-01 -5.4866327e-03 
2.4707952e-01 2.2442810e-01 -4.3831342e-03 
2.4569833e-01 2.2281159e-01 -1.5825562e-03 
2.4556041e-01 2.2282228e-01 -3.4512824e-03 
2.4709103e-01 2.2427443e-01 -2.3125045e-03 
2.4798755e-01 2.2535032e-01 -4.4666855e-03 
2.4590285e-01 2.2324617e-01 -4.4384138e-03 
2.4795949e-01 2.2524315e-01 -3.4782847e-03 
2.4593228e-01 2.2306076e-01 -1.7451234e-03 
2.4472499e-01 2.2190449e-01 -2.5057911e-03 
2.4495216e-01 2.2226503e-01 -4.1518519e-03 
2.4496910e-01 2.2206534e-01 -1.4392528e-03 
2.4396034e-01 2.2120953e-01 -3.4518791e-03 
2.4399266e-01 2.2109026e-01 -1.5535000e-03 
2.4855867e-01 2.2600882e-01 -5.5013476e-03 
2.4508829e-01 2.2241931e-01 -4.3684742e-03 
2.4508971e-01 2.2226566e-01 -2.4211737e-03 
2.4405485e-01 2.2138445e-01 -4.4552586e-03 
2.4311908e-01 2.2028461e-01 -2.4866518e-03 
2.4408095e-01 2.2119294e-01 -1.7198228e-03 
2.4308372e-01 2.2038291e-01 -4.1679968e-03 
2.4309781e-01 2.2017707e-01 -1.4067246e-03 
2.4234772e-01 2.1958433e-01 -3.4522878e-03 
2.4229258e-01 2.1937676e-01 -1.5469748e-03 
2.4339563e-01 2.2071525e-01 -4.3994985e-03 
2.4339944e-01 2.2055157e-01 -2.2877592e-03 
2.4150047e-01 2.1865228e-01 -2.4673410e-03 
2.4387680e-01 2.2120640e-01 -4.4763456e-03 
2.4216658e-01 2.1948244e-01 -4.4719172e-03 
2.4386239e-01 2.2111024e-01 -3.4462726e-03 
2.4219033e-01 2.1928599e-01 -1.6943745e-03 
2.4576350e-01 2.2319108e-01 -5.5154189e-03 
2.4117421e-01 2.1845974e-01 -4.1840668e-03 
2.4118643e-01 2.1824880e-01 -1.3736360e-03 
2.4072230e-01 2.1794659e-01 -3.4524871e-03 
2.4078014e-01 2.1785600e-01 -1.5817425e-03 
2.4131683e-01 2.1861891e-01 -4.3828785e-03 
2.3986891e-01 2.1700695e-01 -2.4479770e-03 
2.4131219e-01 2.1845753e-01 -2.4037380e-03 
2.4023652e-01 2.1753874e-01 -4.4883746e-03 
2.4025922e-01 2.1733835e-01 -1.6684609e-03 
2.3908335e-01 2.1629533e-01 -3.4530149e-03 
2.3912768e-01 2.1619263e-01 -1.5954176e-03 
2.3922212e-01 2.1649410e-01 -4.1999430e-03 
2.4295546e-01 2.2036071e-01 -5.5289478e-03 
2.3923390e-01 2.1627946e-01 -1.3397334e-03 
2.3954867e-01 2.1683952e-01 -4.4143153e-03 
2.3822364e-01 2.1534836e-01 -2.4286269e-03 
2.3954858e-01 2.1666993e-01 -2.2642552e-03 
2.3832037e-01 2.1549252e-01 -3.0215185e-03 
2.4026595e-01 2.1756801e-01 -4.4873194e-03 
2.4025147e-01 2.1747129e-01 -3.4449967e-03 
2.3826329e-01 2.1555212e-01 -4.5046075e-03 
2.3828585e-01 2.1534893e-01 -1.6422747e-03 
2.3743103e-01 2.1463105e-01 -3.4532605e-03 
2.3749045e-01 2.1453866e-01 -1.5311252e-03 
2.3722598e-01 2.1448474e-01 -4.2159301e-03 
2.3723833e-01 2.1426681e-01 -1.3050747e-03 
2.3656484e-01 2.1367618e-01 -2.4087871e-03 
2.4013487e-01 2.1751875e-01 -5.5419281e-03 
2.3737569e-01 2.1464920e-01 -4.3956474e-03 
2.3736924e-01 2.1448474e-01 -2.3880706e-03 
2.3593076e-01 2.1296133e-01 -1.4467712e-03 
2.3576516e-01 2.1295336e-01 -3.4530461e-03 
2.3624492e-01 2.1352026e-01 -4.5205606e-03 
2.3626854e-01 2.1331553e-01 -1.6156621e-03 
2.3489232e-01 2.1199043e-01 -2.3884901e-03 
2.3518413e-01 2.1242948e-01 -4.2316094e-03 
2.3519807e-01 2.1221001e-01 -1.2701872e-03 
2.3552634e-01 2.1278894e-01 -4.4271201e-03 
2.3656888e-01 2.1384682e-01 -4.5285788e-03 
2.3552638e-01 2.1261793e-01 -2.2419745e-03 
2.3652209e-01 2.1372645e-01 -3.5949950e-03 
2.3408511e-01 2.1126194e-01 -3.4527853e-03 
2.3414646e-01 2.1116769e-01 -1.4789995e-03 
2.3730227e-01 2.1466619e-01 -5.5540903e-03 
2.3418011e-01 2.1144213e-01 -4.5359684e-03 
2.3420624e-01 2.1123734e-01 -1.5893738e-03 
2.3320603e-01 2.1029165e-01 -2.3681845e-03 
2.3309477e-01 2.1032728e-01 -4.2467304e-03 
2.3311177e-01 2.1010765e-01 -1.2347928e-03 
2.3239142e-01 2.0955700e-01 -3.4521734e-03 
2.3245354e-01 2.0946242e-01 -1.4528473e-03 
2.3325209e-01 2.1049766e-01 -4.4059264e-03 
2.3324879e-01 2.1033560e-01 -2.3743252e-03 
2.3150548e-01 2.0857935e-01 -2.3481082e-03 
2.3206702e-01 2.0931639e-01 -4.5506633e-03 
2.3209690e-01 2.0911267e-01 -1.5622370e-03 
2.3445521e-01 2.1179929e-01 -5.5648484e-03 
2.3095642e-01 2.0817651e-01 -4.2615691e-03 
2.3068333e-01 2.0783862e-01 -3.4517369e-03 
2.3074582e-01 2.0774280e-01 -1.4261447e-03 
2.3097767e-01 2.0795779e-01 -1.1978374e-03 
2.3241039e-01 2.0966171e-01 -4.5513967e-03 
2.3131561e-01 2.0855074e-01 -4.4371202e-03 
2.3236620e-01 2.0954683e-01 -3.6466743e-03 
2.3132157e-01 2.0838441e-01 -2.2211780e-03 
2.2979042e-01 2.0685223e-01 -2.3275854e-03 
2.2990425e-01 2.0714073e-01 -4.5652040e-03 
2.2993851e-01 2.0693965e-01 -1.5348529e-03 
2.2896032e-01 2.0610492e-01 -3.4511334e-03 
2.2902423e-01 2.0600869e-01 -1.3994768e-03 
2.2876693e-01 2.0597476e-01 -4.2760745e-03 
2.2879408e-01 2.0575881e-01 -1.1609015e-03 
2.3159558e-01 2.0892118e-01 -5.5748047e-03 
2.2806047e-01 2.0511086e-01 -2.3071698e-03 
2.2893269e-01 2.0615141e-01 -4.4137742e-03 
2.2893704e-01 2.0599677e-01 -2.3629253e-03 
2.2722270e-01 2.0435758e-01 -3.4503853e-03 
2.2728701e-01 2.0426004e-01 -1.3724434e-03 
2.2768888e-01 2.0491344e-01 -4.5784204e-03 
2.2773017e-01 2.0471674e-01 -1.5076287e-03 
2.2631568e-01 2.0335498e-01 -2.2859972e-03 
2.2652483e-01 2.0372073e-01 -4.2898529e-03 
2.2655866e-01 2.0350914e-01 -1.1227902e-03 
2.2805323e-01 2.0527931e-01 -4.5757941e-03 
2.2801703e-01 2.0517547e-01 -3.7050613e-03 
2.2669439e-01 2.0390038e-01 -4.4154455e-03 
2.2872347e-01 2.0603189e-01 -5.5838851e-03 
2.2547002e-01 2.0259510e-01 -3.4486507e-03 
2.2553550e-01 2.0249760e-01 -1.3456545e-03 
2.2670497e-01 2.0375258e-01 -2.3581032e-03 
2.2542045e-01 2.0263301e-01 -4.5911991e-03 
2.2546893e-01 2.0244208e-01 -1.4797495e-03 
2.2455591e-01 2.0158529e-01 -2.2652459e-03 
2.2422728e-01 2.0141245e-01 -4.3031778e-03 
2.2427081e-01 2.0120695e-01 -1.0841052e-03 
2.2370251e-01 2.0081943e-01 -3.4470346e-03 
2.2376817e-01 2.0072038e-01 -1.3182081e-03 
2.2440195e-01 2.0159553e-01 -4.4168900e-03 
2.2357053e-01 2.0058183e-01 -2.1001464e-03 
2.2442029e-01 2.0145606e-01 -2.3543497e-03 
2.2278096e-01 1.9980069e-01 -2.2436269e-03 
2.2583599e-01 2.0312706e-01 -5.5911802e-03 
2.2447325e-01 2.0167746e-01 -4.5536179e-03 
2.2309567e-01 2.0029762e-01 -4.6017319e-03 
2.2447753e-01 2.0160602e-01 -3.5624814e-03 
2.2315404e-01 2.0011459e-01 -1.4516956e-03 
2.2191919e-01 1.9902766e-01 -3.4446155e-03 
2.2198589e-01 1.9892879e-01 -1.2904907e-03 
2.2187419e-01 1.9904904e-01 -4.3142983e-03 
2.2192700e-01 1.9885090e-01 -1.0459395e-03 
2.2099061e-01 1.9800168e-01 -2.2226765e-03 
2.2205284e-01 1.9923504e-01 -4.4174446e-03 
2.2208019e-01 1.9910565e-01 -2.3510105e-03 
2.2071365e-01 1.9790556e-01 -4.6122000e-03 
2.2012077e-01 1.9722143e-01 -3.4426041e-03 
2.2018799e-01 1.9712186e-01 -1.2624946e-03 
2.2078261e-01 1.9773197e-01 -1.4230089e-03 
2.2293557e-01 2.0021252e-01 -5.5982089e-03 
2.1946146e-01 1.9662715e-01 -4.3263915e-03 
2.1918420e-01 1.9618681e-01 -2.2011234e-03 
2.2130252e-01 1.9844638e-01 -3.9518033e-03 
2.2125846e-01 1.9845983e-01 -4.7113122e-03 
2.1952651e-01 1.9643894e-01 -1.0051043e-03 
2.1964490e-01 1.9681679e-01 -4.4164015e-03 
2.1968241e-01 1.9669819e-01 -2.3487872e-03 
2.1830560e-01 1.9539963e-01 -3.4404872e-03 
2.1837358e-01 1.9529934e-01 -1.2343001e-03 
2.1827100e-01 1.9545387e-01 -4.6213917e-03 
2.1835312e-01 1.9529173e-01 -1.3943975e-03 
2.1736088e-01 1.9435591e-01 -2.1793132e-03 
2.2002245e-01 1.9728589e-01 -5.6022322e-03 
2.1698645e-01 1.9414428e-01 -4.3375073e-03 
2.1706617e-01 1.9396788e-01 -9.6335559e-04 
2.1647522e-01 1.9356371e-01 -3.4362727e-03 
2.1654356e-01 1.9346216e-01 -1.2066690e-03 
2.1838325e-01 1.9551548e-01 -3.9492552e-03 
2.1834032e-01 1.9552997e-01 -4.7145085e-03 
2.1713696e-01 1.9429965e-01 -4.4142166e-03 
2.1716557e-01 1.9417229e-01 -2.3318445e-03 
2.1598227e-01 1.9299129e-01 -2.4155520e-03 
2.1552429e-01 1.9251299e-01 -2.1567617e-03 
2.1578658e-01 1.9296204e-01 -4.6298159e-03 
2.1589626e-01 1.9282465e-01 -1.3482559e-03 
2.1464472e-01 1.9172667e-01 -3.4149578e-03 
2.1471390e-01 1.9162695e-01 -1.1851278e-03 
2.1449238e-01 1.9164400e-01 -4.3451209e-03 
2.1709646e-01 1.9434845e-01 -5.6047565e-03 
2.1461315e-01 1.9150664e-01 -9.2359632e-04 
2.1370190e-01 1.9068554e-01 -2.1356042e-03 
2.1458651e-01 1.9174218e-01 -4.4181072e-03 
2.1468499e-01 1.9167963e-01 -2.2541834e-03 
2.1545909e-01 1.9258232e-01 -3.9510471e-03 
2.1541736e-01 1.9259767e-01 -4.7179284e-03 
2.1355037e-01 1.9055198e-01 -2.3872608e-03 
2.1282883e-01 1.8990612e-01 -3.3933136e-03 
2.1331368e-01 1.9048326e-01 -4.6377620e-03 
2.1289720e-01 1.8980545e-01 -1.1634860e-03 
2.1346344e-01 1.9038370e-01 -1.2940577e-03 
2.1189359e-01 1.8887231e-01 -2.1132850e-03 
2.1204415e-01 1.8919130e-01 -4.3514040e-03 
2.1220109e-01 1.8908849e-01 -8.8501180e-04 
2.1417142e-01 1.9141419e-01 -5.6055714e-03 
2.1213588e-01 1.8928733e-01 -4.4265217e-03 
2.1227339e-01 1.8925756e-01 -2.1738519e-03 
2.1102549e-01 1.8809840e-01 -3.3720741e-03 
2.1109436e-01 1.8799925e-01 -1.1422901e-03 
2.1242353e-01 1.8958467e-01 -4.5514251e-03 
2.1248753e-01 1.8957242e-01 -3.5178347e-03 
2.1088569e-01 1.8805209e-01 -4.6444386e-03 
2.1107000e-01 1.8798293e-01 -1.2411347e-03 
2.1054627e-01 1.8754137e-01 -2.3497753e-03 
2.1009862e-01 1.8707448e-01 -2.0918888e-03 
2.0982857e-01 1.8671112e-01 -8.4651343e-04 
2.0963866e-01 1.8678327e-01 -4.3562120e-03 
2.0923662e-01 1.8630600e-01 -3.3498425e-03 
2.0930545e-01 1.8620820e-01 -1.1216679e-03 
2.0990008e-01 1.8687658e-01 -2.0956600e-03 
2.0972811e-01 1.8687749e-01 -4.4351867e-03 
2.1125345e-01 1.8849096e-01 -5.6058341e-03 
2.0831694e-01 1.8529096e-01 -2.0712381e-03 
2.0871536e-01 1.8562298e-01 -1.1896384e-03 
2.0849973e-01 1.8566531e-01 -4.6500098e-03 
2.0958735e-01 1.8675789e-01 -4.7227759e-03 
2.0938720e-01 1.8647242e-01 -3.5726239e-03 
2.0746082e-01 1.8452841e-01 -3.3276975e-03 
2.0749423e-01 1.8439683e-01 -1.1195284e-03 
2.0749408e-01 1.8437253e-01 -8.0679794e-04 
2.0727600e-01 1.8442015e-01 -4.3617510e-03 
2.0678535e-01 1.8378171e-01 -2.3754176e-03 
2.0654804e-01 1.8352027e-01 -2.0493611e-03 
2.0756380e-01 1.8453400e-01 -2.0205451e-03 
2.0708758e-01 1.8423149e-01 -4.3822178e-03 
2.0639704e-01 1.8330236e-01 -1.1411032e-03 
2.0615613e-01 1.8332103e-01 -4.6540303e-03 
2.0569699e-01 1.8276280e-01 -3.3045087e-03 
2.0834516e-01 1.8558097e-01 -5.6052855e-03 
2.0576525e-01 1.8266615e-01 -1.0798044e-03 
2.0549440e-01 1.8248279e-01 -2.2585019e-03 
2.0672812e-01 1.8381214e-01 -3.5584422e-03 
2.0479205e-01 1.8176438e-01 -2.0284322e-03 
2.0519458e-01 1.8207368e-01 -7.7211944e-04 
2.0495394e-01 1.8209814e-01 -4.3632593e-03 
2.0668280e-01 1.8385321e-01 -4.7220066e-03 
2.0526516e-01 1.8223223e-01 -1.9461691e-03 
2.0503916e-01 1.8218835e-01 -4.4481661e-03 
2.0394635e-01 1.8101233e-01 -3.2824385e-03 
2.0401485e-01 1.8091631e-01 -1.0592637e-03 
2.0411603e-01 1.8102077e-01 -1.0919655e-03 
2.0385282e-01 1.8101901e-01 -4.6560345e-03 
2.0332398e-01 1.8029207e-01 -1.9446857e-03 
2.0304799e-01 1.8002164e-01 -2.0075748e-03 
2.0544121e-01 1.8267731e-01 -5.6018252e-03 
2.0293218e-01 1.7981227e-01 -7.3456217e-04 
2.0267093e-01 1.7981793e-01 -4.3651676e-03 
2.0407881e-01 1.8113928e-01 -3.2189491e-03 
2.0387127e-01 1.8102135e-01 -4.4366489e-03 
2.0220745e-01 1.7927516e-01 -3.2594625e-03 
2.0300215e-01 1.7996618e-01 -1.8744958e-03 
2.0210344e-01 1.7899925e-01 -9.3524071e-04 
2.0275439e-01 1.7990670e-01 -4.4547366e-03 
2.0131542e-01 1.7829126e-01 -1.9875900e-03 
2.0186944e-01 1.7877439e-01 -1.0431537e-03 
2.0158802e-01 1.7875777e-01 -4.6569807e-03 
2.0054966e-01 1.7745562e-01 -1.0194533e-03 
2.0045130e-01 1.7751171e-01 -3.1135320e-03 
2.0070426e-01 1.7758659e-01 -6.9841504e-04 
2.0042476e-01 1.7757656e-01 -4.3657375e-03 
2.0254345e-01 1.7978081e-01 -5.5956366e-03 
1.9999768e-01 1.7701739e-01 -2.5496283e-03 
2.0077373e-01 1.7773835e-01 -1.8050598e-03 
2.0050678e-01 1.7766330e-01 -4.4605983e-03 
1.9959567e-01 1.7657492e-01 -1.9681598e-03 
1.9965693e-01 1.7656621e-01 -9.9810993e-04 
2.0089251e-01 1.7806748e-01 -4.7139181e-03 
2.0092885e-01 1.7804796e-01 -3.9503709e-03 
1.9907203e-01 1.7597339e-01 -8.9389744e-04 
1.9935922e-01 1.7653255e-01 -4.6559842e-03 
1.9892505e-01 1.7600854e-01 -3.3721165e-03 
2.0024416e-01 1.7727242e-01 -2.6785661e-03 
1.9991261e-01 1.7706253e-01 -4.3527228e-03 
1.9850892e-01 1.7539634e-01 -6.6421332e-04 
1.9821797e-01 1.7537439e-01 -4.3607689e-03 
1.9788863e-01 1.7487150e-01 -1.9480935e-03 
1.9857855e-01 1.7554414e-01 -1.7376953e-03 
1.9829798e-01 1.7546017e-01 -4.4652363e-03 
1.9965212e-01 1.7689373e-01 -5.5861184e-03 
1.9718216e-01 1.7408608e-01 -8.3301414e-04 
1.9704519e-01 1.7413516e-01 -3.3738620e-03 
1.9747816e-01 1.7439021e-01 -9.5339550e-04 
1.9716898e-01 1.7434941e-01 -4.6548326e-03 
1.9619355e-01 1.7318077e-01 -1.9277587e-03 
1.9800881e-01 1.7519097e-01 -4.7060577e-03 
1.9804370e-01 1.7517084e-01 -3.9447155e-03 
1.9634762e-01 1.7323922e-01 -6.2814145e-04 
1.9604632e-01 1.7321098e-01 -4.3582609e-03 
1.9641650e-01 1.7338490e-01 -1.6719298e-03 
1.9522874e-01 1.7232117e-01 -3.3196586e-03 
1.9590124e-01 1.7307502e-01 -4.5107650e-03 
1.9631343e-01 1.7334819e-01 -2.5885135e-03 
1.9503284e-01 1.7194253e-01 -8.0453558e-04 
1.9533134e-01 1.7224891e-01 -9.0965856e-04 
1.9501428e-01 1.7220181e-01 -4.6505872e-03 
1.9450891e-01 1.7150252e-01 -1.9079410e-03 
1.9677070e-01 1.7401890e-01 -5.5736629e-03 
1.9405405e-01 1.7108548e-01 -2.4160633e-03 
1.9421698e-01 1.7111716e-01 -5.9447996e-04 
1.9504185e-01 1.7220649e-01 -4.3286975e-03 
1.9372080e-01 1.7080045e-01 -3.0457631e-03 
1.9390981e-01 1.7108150e-01 -4.3537007e-03 
1.9376421e-01 1.7069030e-01 -9.4315514e-04 
1.9428574e-01 1.7125936e-01 -1.6078266e-03 
1.9513375e-01 1.7232458e-01 -4.6954271e-03 
1.9516778e-01 1.7230390e-01 -3.9358577e-03 
1.9398668e-01 1.7116475e-01 -4.4705109e-03 
1.9307052e-01 1.6998315e-01 -6.9950620e-04 
1.9283654e-01 1.6983703e-01 -1.8887765e-03 
1.9321549e-01 1.7014119e-01 -8.6537562e-04 
1.9289345e-01 1.7008977e-01 -4.6457858e-03 
1.9234942e-01 1.6928367e-01 -9.4594556e-04 
1.9202837e-01 1.6912122e-01 -3.1148198e-03 
1.9211760e-01 1.6902520e-01 -5.6084112e-04 
1.9180636e-01 1.6898866e-01 -4.3481989e-03 
1.9389635e-01 1.7115459e-01 -5.5602640e-03 
1.9218540e-01 1.6916557e-01 -1.5455887e-03 
1.9117515e-01 1.6818340e-01 -1.8689921e-03 
1.9166502e-01 1.6885763e-01 -4.5104646e-03 
1.9093238e-01 1.6785899e-01 -7.3043111e-04 
1.9207110e-01 1.6912857e-01 -2.6321970e-03 
1.9112997e-01 1.6806439e-01 -8.2402275e-04 
1.9088228e-01 1.6790420e-01 -2.0434435e-03 
1.9047959e-01 1.6759664e-01 -3.3301085e-03 
1.9226548e-01 1.6946904e-01 -4.6837209e-03 
1.9080582e-01 1.6801228e-01 -4.6398980e-03 
1.9229847e-01 1.6944796e-01 -3.9264769e-03 
1.9004756e-01 1.6696663e-01 -5.2942941e-04 
1.9083636e-01 1.6801749e-01 -4.2852713e-03 